 Entering Gaussian System, Link 0=g16
 Input=step1.gjf
 Output=step1.log
 Initial command:
 /share/software/user/restricted/gaussian/g16.B01/l1.exe "/home/groups/asalleo/nsiemons/PEDOT/0001/001/Gau-8017.inp" -scrdir="/home/groups/asalleo/nsiemons/PEDOT/0001/001/"
 Entering Link 1 = /share/software/user/restricted/gaussian/g16.B01/l1.exe PID=      8018.
  
 Copyright (c) 1988-2017, Gaussian, Inc.  All Rights Reserved.
  
 This is part of the Gaussian(R) 16 program.  It is based on
 the Gaussian(R) 09 system (copyright 2009, Gaussian, Inc.),
 the Gaussian(R) 03 system (copyright 2003, Gaussian, Inc.),
 the Gaussian(R) 98 system (copyright 1998, Gaussian, Inc.),
 the Gaussian(R) 94 system (copyright 1995, Gaussian, Inc.),
 the Gaussian 92(TM) system (copyright 1992, Gaussian, Inc.),
 the Gaussian 90(TM) system (copyright 1990, Gaussian, Inc.),
 the Gaussian 88(TM) system (copyright 1988, Gaussian, Inc.),
 the Gaussian 86(TM) system (copyright 1986, Carnegie Mellon
 University), and the Gaussian 82(TM) system (copyright 1983,
 Carnegie Mellon University). Gaussian is a federally registered
 trademark of Gaussian, Inc.
  
 This software contains proprietary and confidential information,
 including trade secrets, belonging to Gaussian, Inc.
  
 This software is provided under written license and may be
 used, copied, transmitted, or stored only in accord with that
 written license.
  
 The following legend is applicable only to US Government
 contracts under FAR:
  
                    RESTRICTED RIGHTS LEGEND
  
 Use, reproduction and disclosure by the US Government is
 subject to restrictions as set forth in subparagraphs (a)
 and (c) of the Commercial Computer Software - Restricted
 Rights clause in FAR 52.227-19.
  
 Gaussian, Inc.
 340 Quinnipiac St., Bldg. 40, Wallingford CT 06492
  
  
 ---------------------------------------------------------------
 Warning -- This program may not be used in any manner that
 competes with the business of Gaussian, Inc. or will provide
 assistance to any competitor of Gaussian, Inc.  The licensee
 of this program is prohibited from giving any competitor of
 Gaussian, Inc. access to this program.  By using this program,
 the user acknowledges that Gaussian, Inc. is engaged in the
 business of creating and licensing software in the field of
 computational chemistry and represents and warrants to the
 licensee that it is not a competitor of Gaussian, Inc. and that
 it will not use this program in any manner prohibited above.
 ---------------------------------------------------------------
  

 Cite this work as:
 Gaussian 16, Revision B.01,
 M. J. Frisch, G. W. Trucks, H. B. Schlegel, G. E. Scuseria, 
 M. A. Robb, J. R. Cheeseman, G. Scalmani, V. Barone, 
 G. A. Petersson, H. Nakatsuji, X. Li, M. Caricato, A. V. Marenich, 
 J. Bloino, B. G. Janesko, R. Gomperts, B. Mennucci, H. P. Hratchian, 
 J. V. Ortiz, A. F. Izmaylov, J. L. Sonnenberg, D. Williams-Young, 
 F. Ding, F. Lipparini, F. Egidi, J. Goings, B. Peng, A. Petrone, 
 T. Henderson, D. Ranasinghe, V. G. Zakrzewski, J. Gao, N. Rega, 
 G. Zheng, W. Liang, M. Hada, M. Ehara, K. Toyota, R. Fukuda, 
 J. Hasegawa, M. Ishida, T. Nakajima, Y. Honda, O. Kitao, H. Nakai, 
 T. Vreven, K. Throssell, J. A. Montgomery, Jr., J. E. Peralta, 
 F. Ogliaro, M. J. Bearpark, J. J. Heyd, E. N. Brothers, K. N. Kudin, 
 V. N. Staroverov, T. A. Keith, R. Kobayashi, J. Normand, 
 K. Raghavachari, A. P. Rendell, J. C. Burant, S. S. Iyengar, 
 J. Tomasi, M. Cossi, J. M. Millam, M. Klene, C. Adamo, R. Cammi, 
 J. W. Ochterski, R. L. Martin, K. Morokuma, O. Farkas, 
 J. B. Foresman, and D. J. Fox, Gaussian, Inc., Wallingford CT, 2016.
 
 ******************************************
 Gaussian 16:  ES64L-G16RevB.01 20-Dec-2017
                29-Sep-2023 
 ******************************************
 %mem=50GB
 %nprocshared=8
 Will use up to    8 processors via shared memory.
 ------------------------------------------
 #p opt freq=raman b3lyp/6-311g cphf=rdfreq
 ------------------------------------------
 1/18=20,19=15,26=3,38=1,83=1/1,3;
 2/9=110,12=2,17=6,18=5,40=1/2;
 3/5=4,6=6,11=2,25=1,30=1,71=1,74=-5/1,2,3;
 4//1;
 5/5=2,38=5/2;
 6/7=2,8=2,9=2,10=2,28=1/1;
 7//1,2,3,16;
 1/18=20,19=15,26=3/3(2);
 2/9=110/2;
 99//99;
 2/9=110/2;
 3/5=4,6=6,11=2,25=1,30=1,71=1,74=-5/1,2,3;
 4/5=5,16=3,69=1/1;
 5/5=2,38=5/2;
 7//1,2,3,16;
 1/18=20,19=15,26=3/3(-5);
 2/9=110/2;
 6/7=2,8=2,9=2,10=2,19=2,28=1/1;
 99/9=1/99;
 Leave Link    1 at Fri Sep 29 16:34:29 2023, MaxMem=  6710886400 cpu:               0.5 elap:               0.1
 (Enter /share/software/user/restricted/gaussian/g16.B01/l101.exe)
 ---------
 step0.pdb
 ---------
 Symbolic Z-matrix:
 Charge =  0 Multiplicity = 1
 C                    -4.148     1.753    -0.198 
 C                    -2.732     1.781    -0.006 
 C                    -2.098     0.481    -0.109 
 S                    -3.365    -0.72     -0.561 
 C                    -4.655     0.471    -0.55 
 O                    -4.948     2.861    -0.144 
 O                    -2.072     2.921     0.372 
 C                    -4.282     3.941     0.527 
 C                    -2.84      4.088     0.046 
 H                    -5.684     0.245    -0.783 
 H                    -4.845     4.856     0.321 
 H                    -4.319     3.751     1.607 
 H                    -2.797     4.243    -1.039 
 H                    -2.363     4.945     0.533 
 C                    -0.711     0.075    -0.001 
 C                    -0.094    -1.237     0.052 
 C                     1.334    -1.207     0.077 
 C                     1.88      0.106     0.131 
 S                     0.601     1.308     0.052 
 O                    -0.807    -2.401     0.166 
 O                     2.116    -2.321     0.217 
 C                     0.012    -3.489     0.616 
 C                     1.363    -3.503    -0.095 
 H                    -0.531    -4.418     0.414 
 H                     0.14     -3.396     1.701 
 H                     1.239    -3.56     -1.184 
 H                     1.953    -4.366     0.228 
 H                     2.92      0.347     0.285 
 
 ITRead=  0  0  0  0  0  0  0  0  0  0  0  0  0  0  0  0  0  0  0  0
 ITRead=  0  0  0  0  0  0  0  0
 MicOpt= -1 -1 -1 -1 -1 -1 -1 -1 -1 -1 -1 -1 -1 -1 -1 -1 -1 -1 -1 -1
 MicOpt= -1 -1 -1 -1 -1 -1 -1 -1
 NAtoms=     28 NQM=       28 NQMF=       0 NMMI=      0 NMMIF=      0
                NMic=       0 NMicF=      0.
                    Isotopes and Nuclear Properties:
 (Nuclear quadrupole moments (NQMom) in fm**2, nuclear magnetic moments (NMagM)
  in nuclear magnetons)

  Atom         1           2           3           4           5           6           7           8           9          10
 IAtWgt=          12          12          12          32          12          16          16          12          12           1
 AtmWgt=  12.0000000  12.0000000  12.0000000  31.9720718  12.0000000  15.9949146  15.9949146  12.0000000  12.0000000   1.0078250
 NucSpn=           0           0           0           0           0           0           0           0           0           1
 AtZEff=  -0.0000000  -0.0000000  -0.0000000  -0.0000000  -0.0000000  -0.0000000  -0.0000000  -0.0000000  -0.0000000  -0.0000000
 NQMom=    0.0000000   0.0000000   0.0000000   0.0000000   0.0000000   0.0000000   0.0000000   0.0000000   0.0000000   0.0000000
 NMagM=    0.0000000   0.0000000   0.0000000   0.0000000   0.0000000   0.0000000   0.0000000   0.0000000   0.0000000   2.7928460
 AtZNuc=   6.0000000   6.0000000   6.0000000  16.0000000   6.0000000   8.0000000   8.0000000   6.0000000   6.0000000   1.0000000

  Atom        11          12          13          14          15          16          17          18          19          20
 IAtWgt=           1           1           1           1          12          12          12          12          32          16
 AtmWgt=   1.0078250   1.0078250   1.0078250   1.0078250  12.0000000  12.0000000  12.0000000  12.0000000  31.9720718  15.9949146
 NucSpn=           1           1           1           1           0           0           0           0           0           0
 AtZEff=  -0.0000000  -0.0000000  -0.0000000  -0.0000000  -0.0000000  -0.0000000  -0.0000000  -0.0000000  -0.0000000  -0.0000000
 NQMom=    0.0000000   0.0000000   0.0000000   0.0000000   0.0000000   0.0000000   0.0000000   0.0000000   0.0000000   0.0000000
 NMagM=    2.7928460   2.7928460   2.7928460   2.7928460   0.0000000   0.0000000   0.0000000   0.0000000   0.0000000   0.0000000
 AtZNuc=   1.0000000   1.0000000   1.0000000   1.0000000   6.0000000   6.0000000   6.0000000   6.0000000  16.0000000   8.0000000

  Atom        21          22          23          24          25          26          27          28
 IAtWgt=          16          12          12           1           1           1           1           1
 AtmWgt=  15.9949146  12.0000000  12.0000000   1.0078250   1.0078250   1.0078250   1.0078250   1.0078250
 NucSpn=           0           0           0           1           1           1           1           1
 AtZEff=  -0.0000000  -0.0000000  -0.0000000  -0.0000000  -0.0000000  -0.0000000  -0.0000000  -0.0000000
 NQMom=    0.0000000   0.0000000   0.0000000   0.0000000   0.0000000   0.0000000   0.0000000   0.0000000
 NMagM=    0.0000000   0.0000000   0.0000000   2.7928460   2.7928460   2.7928460   2.7928460   2.7928460
 AtZNuc=   8.0000000   6.0000000   6.0000000   1.0000000   1.0000000   1.0000000   1.0000000   1.0000000
 Using perturbation frequencies:    0.000000    0.085600
 Leave Link  101 at Fri Sep 29 16:34:31 2023, MaxMem=  6710886400 cpu:               6.2 elap:               1.1
 (Enter /share/software/user/restricted/gaussian/g16.B01/l103.exe)

 GradGradGradGradGradGradGradGradGradGradGradGradGradGradGradGradGradGrad
 Berny optimization.
 Initialization pass.
                           ----------------------------
                           !    Initial Parameters    !
                           ! (Angstroms and Degrees)  !
 --------------------------                            --------------------------
 ! Name  Definition              Value          Derivative Info.                !
 --------------------------------------------------------------------------------
 ! R1    R(1,2)                  1.4292         estimate D2E/DX2                !
 ! R2    R(1,5)                  1.4228         estimate D2E/DX2                !
 ! R3    R(1,6)                  1.3677         estimate D2E/DX2                !
 ! R4    R(2,3)                  1.45           estimate D2E/DX2                !
 ! R5    R(2,7)                  1.3704         estimate D2E/DX2                !
 ! R6    R(3,4)                  1.8033         estimate D2E/DX2                !
 ! R7    R(3,15)                 1.4492         estimate D2E/DX2                !
 ! R8    R(4,5)                  1.7558         estimate D2E/DX2                !
 ! R9    R(5,10)                 1.079          estimate D2E/DX2                !
 ! R10   R(6,8)                  1.4353         estimate D2E/DX2                !
 ! R11   R(7,9)                  1.4346         estimate D2E/DX2                !
 ! R12   R(8,9)                  1.5272         estimate D2E/DX2                !
 ! R13   R(8,11)                 1.0939         estimate D2E/DX2                !
 ! R14   R(8,12)                 1.0972         estimate D2E/DX2                !
 ! R15   R(9,13)                 1.0969         estimate D2E/DX2                !
 ! R16   R(9,14)                 1.0951         estimate D2E/DX2                !
 ! R17   R(15,16)                1.4508         estimate D2E/DX2                !
 ! R18   R(15,19)                1.8012         estimate D2E/DX2                !
 ! R19   R(16,17)                1.4285         estimate D2E/DX2                !
 ! R20   R(16,20)                1.3698         estimate D2E/DX2                !
 ! R21   R(17,18)                1.423          estimate D2E/DX2                !
 ! R22   R(17,21)                1.3683         estimate D2E/DX2                !
 ! R23   R(18,19)                1.757          estimate D2E/DX2                !
 ! R24   R(18,28)                1.0786         estimate D2E/DX2                !
 ! R25   R(20,22)                1.4342         estimate D2E/DX2                !
 ! R26   R(21,23)                1.4358         estimate D2E/DX2                !
 ! R27   R(22,23)                1.5267         estimate D2E/DX2                !
 ! R28   R(22,24)                1.0948         estimate D2E/DX2                !
 ! R29   R(22,25)                1.0965         estimate D2E/DX2                !
 ! R30   R(23,26)                1.0975         estimate D2E/DX2                !
 ! R31   R(23,27)                1.0942         estimate D2E/DX2                !
 ! A1    A(2,1,5)              113.8232         estimate D2E/DX2                !
 ! A2    A(2,1,6)              123.9409         estimate D2E/DX2                !
 ! A3    A(5,1,6)              122.0916         estimate D2E/DX2                !
 ! A4    A(1,2,3)              113.9588         estimate D2E/DX2                !
 ! A5    A(1,2,7)              122.0387         estimate D2E/DX2                !
 ! A6    A(3,2,7)              123.6976         estimate D2E/DX2                !
 ! A7    A(2,3,4)              107.9203         estimate D2E/DX2                !
 ! A8    A(2,3,15)             131.6309         estimate D2E/DX2                !
 ! A9    A(4,3,15)             120.2997         estimate D2E/DX2                !
 ! A10   A(3,4,5)               93.6047         estimate D2E/DX2                !
 ! A11   A(1,5,4)              110.5447         estimate D2E/DX2                !
 ! A12   A(1,5,10)             125.5891         estimate D2E/DX2                !
 ! A13   A(4,5,10)             123.866          estimate D2E/DX2                !
 ! A14   A(1,6,8)              110.8925         estimate D2E/DX2                !
 ! A15   A(2,7,9)              110.8667         estimate D2E/DX2                !
 ! A16   A(6,8,9)              111.3033         estimate D2E/DX2                !
 ! A17   A(6,8,11)             107.6099         estimate D2E/DX2                !
 ! A18   A(6,8,12)             108.3131         estimate D2E/DX2                !
 ! A19   A(9,8,11)             110.251          estimate D2E/DX2                !
 ! A20   A(9,8,12)             111.0096         estimate D2E/DX2                !
 ! A21   A(11,8,12)            108.2312         estimate D2E/DX2                !
 ! A22   A(7,9,8)              110.831          estimate D2E/DX2                !
 ! A23   A(7,9,13)             108.5878         estimate D2E/DX2                !
 ! A24   A(7,9,14)             107.6007         estimate D2E/DX2                !
 ! A25   A(8,9,13)             111.2334         estimate D2E/DX2                !
 ! A26   A(8,9,14)             110.2767         estimate D2E/DX2                !
 ! A27   A(13,9,14)            108.1948         estimate D2E/DX2                !
 ! A28   A(3,15,16)            131.5357         estimate D2E/DX2                !
 ! A29   A(3,15,19)            120.4998         estimate D2E/DX2                !
 ! A30   A(16,15,19)           107.9504         estimate D2E/DX2                !
 ! A31   A(15,16,17)           114.0021         estimate D2E/DX2                !
 ! A32   A(15,16,20)           123.3771         estimate D2E/DX2                !
 ! A33   A(17,16,20)           122.4607         estimate D2E/DX2                !
 ! A34   A(16,17,18)           113.8026         estimate D2E/DX2                !
 ! A35   A(16,17,21)           123.7803         estimate D2E/DX2                !
 ! A36   A(18,17,21)           121.874          estimate D2E/DX2                !
 ! A37   A(17,18,19)           110.501          estimate D2E/DX2                !
 ! A38   A(17,18,28)           125.5585         estimate D2E/DX2                !
 ! A39   A(19,18,28)           123.7428         estimate D2E/DX2                !
 ! A40   A(15,19,18)            93.6264         estimate D2E/DX2                !
 ! A41   A(16,20,22)           111.9324         estimate D2E/DX2                !
 ! A42   A(17,21,23)           110.3828         estimate D2E/DX2                !
 ! A43   A(20,22,23)           111.4783         estimate D2E/DX2                !
 ! A44   A(20,22,24)           107.6128         estimate D2E/DX2                !
 ! A45   A(20,22,25)           108.2277         estimate D2E/DX2                !
 ! A46   A(23,22,24)           110.1921         estimate D2E/DX2                !
 ! A47   A(23,22,25)           110.996          estimate D2E/DX2                !
 ! A48   A(24,22,25)           108.2061         estimate D2E/DX2                !
 ! A49   A(21,23,22)           110.8142         estimate D2E/DX2                !
 ! A50   A(21,23,26)           108.5194         estimate D2E/DX2                !
 ! A51   A(21,23,27)           107.6            estimate D2E/DX2                !
 ! A52   A(22,23,26)           111.259          estimate D2E/DX2                !
 ! A53   A(22,23,27)           110.2986         estimate D2E/DX2                !
 ! A54   A(26,23,27)           108.2323         estimate D2E/DX2                !
 ! D1    D(5,1,2,3)             -4.3295         estimate D2E/DX2                !
 ! D2    D(5,1,2,7)           -178.2067         estimate D2E/DX2                !
 ! D3    D(6,1,2,3)            179.9664         estimate D2E/DX2                !
 ! D4    D(6,1,2,7)              6.0892         estimate D2E/DX2                !
 ! D5    D(2,1,5,4)              2.8687         estimate D2E/DX2                !
 ! D6    D(2,1,5,10)          -176.9843         estimate D2E/DX2                !
 ! D7    D(6,1,5,4)            178.6622         estimate D2E/DX2                !
 ! D8    D(6,1,5,10)            -1.1909         estimate D2E/DX2                !
 ! D9    D(2,1,6,8)            -18.184          estimate D2E/DX2                !
 ! D10   D(5,1,6,8)            166.4553         estimate D2E/DX2                !
 ! D11   D(1,2,3,4)              3.6367         estimate D2E/DX2                !
 ! D12   D(1,2,3,15)           179.0829         estimate D2E/DX2                !
 ! D13   D(7,2,3,4)            177.3977         estimate D2E/DX2                !
 ! D14   D(7,2,3,15)            -7.1561         estimate D2E/DX2                !
 ! D15   D(1,2,7,9)            -22.0904         estimate D2E/DX2                !
 ! D16   D(3,2,7,9)            164.6376         estimate D2E/DX2                !
 ! D17   D(2,3,4,5)             -1.685          estimate D2E/DX2                !
 ! D18   D(15,3,4,5)          -177.7438         estimate D2E/DX2                !
 ! D19   D(2,3,15,16)          171.6821         estimate D2E/DX2                !
 ! D20   D(2,3,15,19)           -9.8669         estimate D2E/DX2                !
 ! D21   D(4,3,15,16)          -13.3374         estimate D2E/DX2                !
 ! D22   D(4,3,15,19)          165.1136         estimate D2E/DX2                !
 ! D23   D(3,4,5,1)             -0.6111         estimate D2E/DX2                !
 ! D24   D(3,4,5,10)           179.245          estimate D2E/DX2                !
 ! D25   D(1,6,8,9)             44.922          estimate D2E/DX2                !
 ! D26   D(1,6,8,11)           165.8231         estimate D2E/DX2                !
 ! D27   D(1,6,8,12)           -77.382          estimate D2E/DX2                !
 ! D28   D(2,7,9,8)             48.8573         estimate D2E/DX2                !
 ! D29   D(2,7,9,13)           -73.6074         estimate D2E/DX2                !
 ! D30   D(2,7,9,14)           169.5014         estimate D2E/DX2                !
 ! D31   D(6,8,9,7)            -63.6384         estimate D2E/DX2                !
 ! D32   D(6,8,9,13)            57.2738         estimate D2E/DX2                !
 ! D33   D(6,8,9,14)           177.3181         estimate D2E/DX2                !
 ! D34   D(11,8,9,7)           177.022          estimate D2E/DX2                !
 ! D35   D(11,8,9,13)          -62.0658         estimate D2E/DX2                !
 ! D36   D(11,8,9,14)           57.9785         estimate D2E/DX2                !
 ! D37   D(12,8,9,7)            57.0943         estimate D2E/DX2                !
 ! D38   D(12,8,9,13)          178.0066         estimate D2E/DX2                !
 ! D39   D(12,8,9,14)          -61.9491         estimate D2E/DX2                !
 ! D40   D(3,15,16,17)         176.3102         estimate D2E/DX2                !
 ! D41   D(3,15,16,20)          -8.1939         estimate D2E/DX2                !
 ! D42   D(19,15,16,17)         -2.2869         estimate D2E/DX2                !
 ! D43   D(19,15,16,20)        173.209          estimate D2E/DX2                !
 ! D44   D(3,15,19,18)        -178.5091         estimate D2E/DX2                !
 ! D45   D(16,15,19,18)          0.2722         estimate D2E/DX2                !
 ! D46   D(15,16,17,18)          3.7801         estimate D2E/DX2                !
 ! D47   D(15,16,17,21)        175.4486         estimate D2E/DX2                !
 ! D48   D(20,16,17,18)       -171.7623         estimate D2E/DX2                !
 ! D49   D(20,16,17,21)         -0.0938         estimate D2E/DX2                !
 ! D50   D(15,16,20,22)       -161.5572         estimate D2E/DX2                !
 ! D51   D(17,16,20,22)         13.5653         estimate D2E/DX2                !
 ! D52   D(16,17,18,19)         -3.4313         estimate D2E/DX2                !
 ! D53   D(16,17,18,28)        171.5978         estimate D2E/DX2                !
 ! D54   D(21,17,18,19)       -175.278          estimate D2E/DX2                !
 ! D55   D(21,17,18,28)         -0.2489         estimate D2E/DX2                !
 ! D56   D(16,17,21,23)         18.4699         estimate D2E/DX2                !
 ! D57   D(18,17,21,23)       -170.5116         estimate D2E/DX2                !
 ! D58   D(17,18,19,15)          1.7619         estimate D2E/DX2                !
 ! D59   D(28,18,19,15)       -173.3752         estimate D2E/DX2                !
 ! D60   D(16,20,22,23)        -43.2884         estimate D2E/DX2                !
 ! D61   D(16,20,22,24)       -164.2247         estimate D2E/DX2                !
 ! D62   D(16,20,22,25)         79.0529         estimate D2E/DX2                !
 ! D63   D(17,21,23,22)        -47.7336         estimate D2E/DX2                !
 ! D64   D(17,21,23,26)         74.7068         estimate D2E/DX2                !
 ! D65   D(17,21,23,27)       -168.3941         estimate D2E/DX2                !
 ! D66   D(20,22,23,21)         63.5854         estimate D2E/DX2                !
 ! D67   D(20,22,23,26)        -57.246          estimate D2E/DX2                !
 ! D68   D(20,22,23,27)       -177.3686         estimate D2E/DX2                !
 ! D69   D(24,22,23,21)       -176.9973         estimate D2E/DX2                !
 ! D70   D(24,22,23,26)         62.1713         estimate D2E/DX2                !
 ! D71   D(24,22,23,27)        -57.9513         estimate D2E/DX2                !
 ! D72   D(25,22,23,21)        -57.1484         estimate D2E/DX2                !
 ! D73   D(25,22,23,26)       -177.9798         estimate D2E/DX2                !
 ! D74   D(25,22,23,27)         61.8976         estimate D2E/DX2                !
 --------------------------------------------------------------------------------
 Trust Radius=3.00D-01 FncErr=1.00D-07 GrdErr=1.00D-06 EigMax=2.50D+02 EigMin=1.00D-04
 Number of steps in this run=    168 maximum allowed number of steps=    168.
 GradGradGradGradGradGradGradGradGradGradGradGradGradGradGradGradGradGrad

 Leave Link  103 at Fri Sep 29 16:34:31 2023, MaxMem=  6710886400 cpu:               1.7 elap:               0.4
 (Enter /share/software/user/restricted/gaussian/g16.B01/l202.exe)
                          Input orientation:                          
 ---------------------------------------------------------------------
 Center     Atomic      Atomic             Coordinates (Angstroms)
 Number     Number       Type             X           Y           Z
 ---------------------------------------------------------------------
      1          6           0       -4.148000    1.753000   -0.198000
      2          6           0       -2.732000    1.781000   -0.006000
      3          6           0       -2.098000    0.481000   -0.109000
      4         16           0       -3.365000   -0.720000   -0.561000
      5          6           0       -4.655000    0.471000   -0.550000
      6          8           0       -4.948000    2.861000   -0.144000
      7          8           0       -2.072000    2.921000    0.372000
      8          6           0       -4.282000    3.941000    0.527000
      9          6           0       -2.840000    4.088000    0.046000
     10          1           0       -5.684000    0.245000   -0.783000
     11          1           0       -4.845000    4.856000    0.321000
     12          1           0       -4.319000    3.751000    1.607000
     13          1           0       -2.797000    4.243000   -1.039000
     14          1           0       -2.363000    4.945000    0.533000
     15          6           0       -0.711000    0.075000   -0.001000
     16          6           0       -0.094000   -1.237000    0.052000
     17          6           0        1.334000   -1.207000    0.077000
     18          6           0        1.880000    0.106000    0.131000
     19         16           0        0.601000    1.308000    0.052000
     20          8           0       -0.807000   -2.401000    0.166000
     21          8           0        2.116000   -2.321000    0.217000
     22          6           0        0.012000   -3.489000    0.616000
     23          6           0        1.363000   -3.503000   -0.095000
     24          1           0       -0.531000   -4.418000    0.414000
     25          1           0        0.140000   -3.396000    1.701000
     26          1           0        1.239000   -3.560000   -1.184000
     27          1           0        1.953000   -4.366000    0.228000
     28          1           0        2.920000    0.347000    0.285000
 ---------------------------------------------------------------------
                    Distance matrix (angstroms):
                    1          2          3          4          5
     1  C    0.000000
     2  C    1.429232   0.000000
     3  C    2.414209   1.450022   0.000000
     4  S    2.619272   2.638885   1.803329   0.000000
     5  C    1.422841   2.389553   2.594770   1.755763   0.000000
     6  O    1.367691   2.469028   3.713236   3.937428   2.441881
     7  O    2.449265   1.370432   2.487094   3.974823   3.677563
     8  C    2.308880   2.711492   4.140767   4.873351   3.652391
     9  C    2.687494   2.310112   3.685789   4.874519   4.090493
    10  H    2.230602   3.417211   3.656415   2.521561   1.078984
    11  H    3.222387   3.745307   5.183776   5.836103   4.474703
    12  H    2.698012   3.000206   4.309338   5.059662   3.940044
    13  H    2.955094   2.670722   3.937784   5.018215   4.233116
    14  H    3.729538   3.230724   4.517708   5.856028   5.142259
    15  C    3.829812   2.644788   1.449230   2.826542   4.001669
    16  C    5.043562   4.008832   2.644515   3.367863   4.907381
    17  C    6.236149   5.046522   3.829173   4.767055   6.251155
    18  C    6.257606   4.908659   4.002838   5.354546   6.580518
    19  S    4.776351   3.366895   2.827446   4.496411   5.356166
    20  O    5.343266   4.606987   3.169894   3.146054   4.854703
    21  O    7.483809   6.354466   5.071023   5.762798   7.364102
    22  C    6.741421   5.974054   4.553968   4.522922   6.230734
    23  C    7.616250   6.685627   5.277402   5.506018   7.226066
    24  H    7.179030   6.591540   5.170031   4.759977   6.468307
    25  H    6.964578   6.161458   4.828651   4.956072   6.558408
    26  H    7.630199   6.758906   5.349848   5.445231   7.168693
    27  H    8.651349   7.732373   6.325945   6.495919   8.226027
    28  H    7.222655   5.838334   5.035228   6.430819   7.621891
                    6          7          8          9         10
     6  O    0.000000
     7  O    2.922539   0.000000
     8  C    1.435339   2.438960   0.000000
     9  C    2.446486   1.434569   1.527198   0.000000
    10  H    2.791679   4.641287   4.164387   4.852239   0.000000
    11  H    2.051063   3.381768   1.093906   2.164596   4.814983
    12  H    2.062460   2.695020   1.097210   2.176633   4.457282
    13  H    2.708828   2.065001   2.179171   1.096859   4.938047
    14  H    3.388748   2.051141   2.165782   1.095056   5.903465
    15  C    5.072910   3.176660   5.289308   4.543019   5.036979
    16  C    6.355575   4.615609   6.676575   5.991342   5.843086
    17  C    7.487389   5.359874   7.631767   6.742423   7.218049
    18  C    7.367987   4.858046   7.268720   6.175917   7.620290
    19  S    5.765555   3.138327   5.567944   4.423677   6.428718
    20  O    6.703180   5.474152   7.240643   6.801074   5.629125
    21  O    8.768326   6.711329   8.957854   8.103484   8.271902
    22  C    8.093312   6.744679   8.582031   8.116017   6.953012
    23  C    8.962791   7.299664   9.363015   8.678040   8.011308
    24  H    8.532590   7.499158   9.162732   8.821504   7.051935
    25  H    8.272957   6.823758   8.646614   8.223727   7.303842
    26  H    8.977183   7.442259   9.469634   8.754601   7.909915
    27  H    9.999586   8.325967  10.390903   9.719881   8.978152
    28  H    8.271013   5.617215   8.052590   6.872394   8.670631
                   11         12         13         14         15
    11  H    0.000000
    12  H    1.775246   0.000000
    13  H    2.533707   3.091903   0.000000
    14  H    2.492627   2.530820   1.775484   0.000000
    15  C    6.328633   5.395953   4.775046   5.170219   0.000000
    16  C    7.731042   6.719285   6.207003   6.602791   1.450807
    17  C    8.660228   7.673270   6.929150   7.191860   2.414877
    18  C    8.235546   7.341131   6.352795   6.448300   2.594545
    19  S    6.505350   5.708999   4.620704   4.716400   1.801233
    20  O    8.306234   7.228951   7.039521   7.517948   2.483482
    21  O    9.998783   8.956032   8.294649   8.541432   3.712178
    22  C    9.660047   8.494542   8.391265   8.762412   3.688565
    23  C   10.420422   9.370296   8.842921   9.254521   4.136713
    24  H   10.228701   9.083213   9.069668   9.541287   4.515714
    25  H    9.739103   8.424436   8.630637   8.786439   3.958389
    26  H   10.493290   9.598529   8.786190   9.394547   4.291295
    27  H   11.457170  10.350136   9.913762  10.267210   5.183803
    28  H    8.979287   8.107899   7.043854   7.008081   3.652388
                   16         17         18         19         20
    16  C    0.000000
    17  C    1.428534   0.000000
    18  C    2.388842   1.423025   0.000000
    19  S    2.638191   2.619759   1.756954   0.000000
    20  O    1.369767   2.453047   3.675084   3.968897   0.000000
    21  O    2.467059   1.368254   2.439963   3.935999   2.924539
    22  C    2.323970   2.691789   4.080279   4.865822   1.434226
    23  C    2.698002   2.302616   3.652841   4.873189   2.447739
    24  H    3.231219   3.728581   5.134159   5.848038   2.050846
    25  H    2.726763   2.975690   4.213847   5.005930   2.059869
    26  H    2.949731   2.671283   3.947108   5.062822   2.711438
    27  H    3.743237   3.222614   4.473648   5.835508   3.388609
    28  H    3.412849   2.230152   1.078609   2.521026   4.632083
                   21         22         23         24         25
    21  O    0.000000
    22  C    2.439312   0.000000
    23  C    1.435784   1.526734   0.000000
    24  H    3.382725   1.094849   2.164149   0.000000
    25  H    2.694895   1.096475   2.175499   1.775132   0.000000
    26  H    2.065684   2.179580   1.097518   2.534298   3.091589
    27  H    2.051515   2.164984   1.094165   2.491497   2.529347
    28  H    2.787340   4.825031   4.170270   5.884834   4.872731
                   26         27         28
    26  H    0.000000
    27  H    1.775718   0.000000
    28  H    4.499819   4.811518   0.000000
 Stoichiometry    C12H10O4S2
 Framework group  C1[X(C12H10O4S2)]
 Deg. of freedom    78
 Full point group                 C1      NOp   1
 Largest Abelian subgroup         C1      NOp   1
 Largest concise Abelian subgroup C1      NOp   1
                         Standard orientation:                         
 ---------------------------------------------------------------------
 Center     Atomic      Atomic             Coordinates (Angstroms)
 Number     Number       Type             X           Y           Z
 ---------------------------------------------------------------------
      1          6           0       -2.979905   -0.915265   -0.051502
      2          6           0       -1.999732    0.122958    0.012201
      3          6           0       -0.632346   -0.352259   -0.071410
      4         16           0       -0.679868   -2.134967   -0.339154
      5          6           0       -2.433181   -2.208396   -0.282545
      6          8           0       -4.328680   -0.696855    0.009193
      7          8           0       -2.337392    1.427107    0.263725
      8          6           0       -4.613191    0.599811    0.555002
      9          6           0       -3.713747    1.670085   -0.059691
     10          1           0       -3.001356   -3.116779   -0.409916
     11          1           0       -5.663730    0.823079    0.347277
     12          1           0       -4.481005    0.552385    1.643187
     13          1           0       -3.816952    1.696678   -1.151359
     14          1           0       -3.976699    2.657993    0.332790
     15          6           0        0.633990    0.352440   -0.063608
     16          6           0        2.001298   -0.127016    0.010105
     17          6           0        2.984901    0.903767   -0.093433
     18          6           0        2.437177    2.215264   -0.163965
     19         16           0        0.681851    2.147980   -0.198462
     20          8           0        2.329306   -1.434392    0.253905
     21          8           0        4.329448    0.688558    0.040725
     22          6           0        3.688066   -1.573147    0.691540
     23          6           0        4.632956   -0.703799   -0.134495
     24          1           0        3.961880   -2.628564    0.592470
     25          1           0        3.735335   -1.305213    1.753724
     26          1           0        4.562836   -0.944080   -1.203089
     27          1           0        5.668053   -0.859432    0.184177
     28          1           0        3.000733    3.133738   -0.116993
 ---------------------------------------------------------------------
 Rotational constants (GHZ):           0.7699652           0.2179005           0.1730626
 Leave Link  202 at Fri Sep 29 16:34:31 2023, MaxMem=  6710886400 cpu:               0.4 elap:               0.1
 (Enter /share/software/user/restricted/gaussian/g16.B01/l301.exe)
 Standard basis: 6-311G (5D, 7F)
 Ernie: Thresh=  0.10000D-02 Tol=  0.10000D-05 Strict=F.
 There are   280 symmetry adapted cartesian basis functions of A   symmetry.
 There are   280 symmetry adapted basis functions of A   symmetry.
   280 basis functions,   546 primitive gaussians,   280 cartesian basis functions
    73 alpha electrons       73 beta electrons
       nuclear repulsion energy      1568.1370095665 Hartrees.
 IExCor=  402 DFT=T Ex+Corr=B3LYP ExCW=0 ScaHFX=  0.200000
 ScaDFX=  0.800000  0.720000  1.000000  0.810000 ScalE2=  1.000000  1.000000
 IRadAn=      5 IRanWt=     -1 IRanGd=            0 ICorTp=0 IEmpDi=  4
 NAtoms=   28 NActive=   28 NUniq=   28 SFac= 1.00D+00 NAtFMM=   60 NAOKFM=F Big=F
 Integral buffers will be    131072 words long.
 Raffenetti 2 integral format.
 Two-electron integral symmetry is turned on.
 Leave Link  301 at Fri Sep 29 16:34:32 2023, MaxMem=  6710886400 cpu:               1.8 elap:               0.4
 (Enter /share/software/user/restricted/gaussian/g16.B01/l302.exe)
 NPDir=0 NMtPBC=     1 NCelOv=     1 NCel=       1 NClECP=     1 NCelD=      1
         NCelK=      1 NCelE2=     1 NClLst=     1 CellRange=     0.0.
 One-electron integrals computed using PRISM.
 One-electron integral symmetry used in STVInt
 NBasis=   280 RedAO= T EigKep=  6.03D-04  NBF=   280
 NBsUse=   280 1.00D-06 EigRej= -1.00D+00 NBFU=   280
 Precomputing XC quadrature grid using
 IXCGrd= 4 IRadAn=           5 IRanWt=          -1 IRanGd=           0 AccXCQ= 0.00D+00.
 Generated NRdTot=       0 NPtTot=           0 NUsed=           0 NTot=          32
 NSgBfM=   272   272   272   272   272 MxSgAt=    28 MxSgA2=    28.
 Leave Link  302 at Fri Sep 29 16:34:33 2023, MaxMem=  6710886400 cpu:               9.6 elap:               1.5
 (Enter /share/software/user/restricted/gaussian/g16.B01/l303.exe)
 DipDrv:  MaxL=1.
 Leave Link  303 at Fri Sep 29 16:34:34 2023, MaxMem=  6710886400 cpu:               2.6 elap:               0.5
 (Enter /share/software/user/restricted/gaussian/g16.B01/l401.exe)
 ExpMin= 7.71D-02 ExpMax= 9.34D+04 ExpMxC= 3.17D+03 IAcc=3 IRadAn=         5 AccDes= 0.00D+00
 Harris functional with IExCor=  402 and IRadAn=       5 diagonalized for initial guess.
 HarFok:  IExCor=  402 AccDes= 0.00D+00 IRadAn=         5 IDoV= 1 UseB2=F ITyADJ=14
 ICtDFT=  3500011 ScaDFX=  1.000000  1.000000  1.000000  1.000000
 FoFCou: FMM=F IPFlag=           0 FMFlag=      100000 FMFlg1=           0
         NFxFlg=           0 DoJE=T BraDBF=F KetDBF=T FulRan=T
         wScrn=  0.000000 ICntrl=       500 IOpCl=  0 I1Cent=   200000004 NGrid=           0
         NMat0=    1 NMatS0=      1 NMatT0=    0 NMatD0=    1 NMtDS0=    0 NMtDT0=    0
 Petite list used in FoFCou.
 Harris En= -1560.31866520488    
 JPrj=0 DoOrth=F DoCkMO=F.
 Leave Link  401 at Fri Sep 29 16:34:36 2023, MaxMem=  6710886400 cpu:              13.5 elap:               2.0
 (Enter /share/software/user/restricted/gaussian/g16.B01/l502.exe)
 Integral symmetry usage will be decided dynamically.
 Closed shell SCF:
 Using DIIS extrapolation, IDIIS=  1040.
 NGot=  6710886400 LenX=  6710724250 LenY=  6710645409
 Requested convergence on RMS density matrix=1.00D-08 within 128 cycles.
 Requested convergence on MAX density matrix=1.00D-06.
 Requested convergence on             energy=1.00D-06.
 No special actions if energy rises.
 Fock matrices will be formed incrementally for  20 cycles.
 Integral accuracy reduced to 1.0D-05 until final iterations.

 Cycle   1  Pass 0  IDiag  1:
 FoFJK:  IHMeth= 1 ICntrl=       0 DoSepK=F KAlg= 0 I1Cent=           0 FoldK=F
 IRaf= 770000000 NMat=       1 IRICut=       1 DoRegI=T DoRafI=F ISym2E= 0 IDoP0=0 IntGTp=1.
 FoFCou: FMM=F IPFlag=           0 FMFlag=      100000 FMFlg1=           0
         NFxFlg=           0 DoJE=F BraDBF=F KetDBF=F FulRan=T
         wScrn=  0.000000 ICntrl=         0 IOpCl=  0 I1Cent=           0 NGrid=           0
         NMat0=    1 NMatS0=      1 NMatT0=    0 NMatD0=    1 NMtDS0=    0 NMtDT0=    0
 Symmetry not used in FoFCou.
 E= -1560.10146779870    
 DIIS: error= 2.50D-02 at cycle   1 NSaved=   1.
 NSaved= 1 IEnMin= 1 EnMin= -1560.10146779870     IErMin= 1 ErrMin= 2.50D-02
 ErrMax= 2.50D-02  0.00D+00 EMaxC= 1.00D-01 BMatC= 3.88D-01 BMatP= 3.88D-01
 IDIUse=3 WtCom= 7.50D-01 WtEn= 2.50D-01
 Coeff-Com:  0.100D+01
 Coeff-En:   0.100D+01
 Coeff:      0.100D+01
 Gap=     0.116 Goal=   None    Shift=    0.000
 GapD=    0.116 DampG=1.000 DampE=0.500 DampFc=0.5000 IDamp=-1.
 Damping current iteration by 5.00D-01
 RMSDP=5.26D-03 MaxDP=1.79D-01              OVMax= 1.82D-01

 Cycle   2  Pass 0  IDiag  1:
 RMSU=  2.63D-03    CP:  1.01D+00
 E= -1560.21955744432     Delta-E=       -0.118089645616 Rises=F Damp=T
 DIIS: error= 6.32D-03 at cycle   2 NSaved=   2.
 NSaved= 2 IEnMin= 2 EnMin= -1560.21955744432     IErMin= 2 ErrMin= 6.32D-03
 ErrMax= 6.32D-03  0.00D+00 EMaxC= 1.00D-01 BMatC= 3.32D-02 BMatP= 3.88D-01
 IDIUse=3 WtCom= 9.37D-01 WtEn= 6.32D-02
 Coeff-Com:  0.767D-01 0.923D+00
 Coeff-En:   0.211D+00 0.789D+00
 Coeff:      0.852D-01 0.915D+00
 Gap=     0.133 Goal=   None    Shift=    0.000
 RMSDP=2.03D-03 MaxDP=5.55D-02 DE=-1.18D-01 OVMax= 1.53D-01

 Cycle   3  Pass 0  IDiag  1:
 RMSU=  1.95D-03    CP:  1.03D+00  8.26D-01
 E= -1560.38219270217     Delta-E=       -0.162635257851 Rises=F Damp=F
 DIIS: error= 7.16D-03 at cycle   3 NSaved=   3.
 NSaved= 3 IEnMin= 3 EnMin= -1560.38219270217     IErMin= 2 ErrMin= 6.32D-03
 ErrMax= 7.16D-03  0.00D+00 EMaxC= 1.00D-01 BMatC= 1.77D-02 BMatP= 3.32D-02
 IDIUse=3 WtCom= 9.28D-01 WtEn= 7.16D-02
 Coeff-Com: -0.588D-01 0.400D+00 0.659D+00
 Coeff-En:   0.000D+00 0.000D+00 0.100D+01
 Coeff:     -0.546D-01 0.371D+00 0.684D+00
 Gap=     0.129 Goal=   None    Shift=    0.000
 RMSDP=1.00D-03 MaxDP=2.94D-02 DE=-1.63D-01 OVMax= 7.21D-02

 Cycle   4  Pass 0  IDiag  1:
 RMSU=  7.66D-04    CP:  1.03D+00  9.84D-01  7.46D-01
 E= -1560.38778230161     Delta-E=       -0.005589599438 Rises=F Damp=F
 DIIS: error= 5.81D-03 at cycle   4 NSaved=   4.
 NSaved= 4 IEnMin= 4 EnMin= -1560.38778230161     IErMin= 4 ErrMin= 5.81D-03
 ErrMax= 5.81D-03  0.00D+00 EMaxC= 1.00D-01 BMatC= 1.10D-02 BMatP= 1.77D-02
 IDIUse=3 WtCom= 9.42D-01 WtEn= 5.81D-02
 Coeff-Com: -0.441D-01 0.168D+00 0.484D+00 0.391D+00
 Coeff-En:   0.000D+00 0.000D+00 0.416D+00 0.584D+00
 Coeff:     -0.416D-01 0.159D+00 0.480D+00 0.403D+00
 Gap=     0.128 Goal=   None    Shift=    0.000
 RMSDP=5.98D-04 MaxDP=2.89D-02 DE=-5.59D-03 OVMax= 4.57D-02

 Cycle   5  Pass 0  IDiag  1:
 RMSU=  2.13D-04    CP:  1.02D+00  9.44D-01  7.31D-01  2.89D-01
 E= -1560.39858639258     Delta-E=       -0.010804090976 Rises=F Damp=F
 DIIS: error= 1.43D-03 at cycle   5 NSaved=   5.
 NSaved= 5 IEnMin= 5 EnMin= -1560.39858639258     IErMin= 5 ErrMin= 1.43D-03
 ErrMax= 1.43D-03  0.00D+00 EMaxC= 1.00D-01 BMatC= 7.45D-04 BMatP= 1.10D-02
 IDIUse=3 WtCom= 9.86D-01 WtEn= 1.43D-02
 Coeff-Com: -0.184D-01 0.586D-01 0.243D+00 0.258D+00 0.458D+00
 Coeff-En:   0.000D+00 0.000D+00 0.000D+00 0.225D-01 0.978D+00
 Coeff:     -0.181D-01 0.578D-01 0.240D+00 0.255D+00 0.466D+00
 Gap=     0.129 Goal=   None    Shift=    0.000
 RMSDP=1.48D-04 MaxDP=4.17D-03 DE=-1.08D-02 OVMax= 1.24D-02

 Cycle   6  Pass 0  IDiag  1:
 RMSU=  7.42D-05    CP:  1.02D+00  9.34D-01  7.36D-01  4.19D-01  6.46D-01
 E= -1560.39929712535     Delta-E=       -0.000710732765 Rises=F Damp=F
 DIIS: error= 3.68D-04 at cycle   6 NSaved=   6.
 NSaved= 6 IEnMin= 6 EnMin= -1560.39929712535     IErMin= 6 ErrMin= 3.68D-04
 ErrMax= 3.68D-04  0.00D+00 EMaxC= 1.00D-01 BMatC= 7.49D-05 BMatP= 7.45D-04
 IDIUse=3 WtCom= 9.96D-01 WtEn= 3.68D-03
 Coeff-Com: -0.468D-02 0.109D-01 0.863D-01 0.107D+00 0.288D+00 0.513D+00
 Coeff-En:   0.000D+00 0.000D+00 0.000D+00 0.000D+00 0.507D-01 0.949D+00
 Coeff:     -0.467D-02 0.108D-01 0.860D-01 0.106D+00 0.287D+00 0.514D+00
 Gap=     0.129 Goal=   None    Shift=    0.000
 RMSDP=4.52D-05 MaxDP=1.44D-03 DE=-7.11D-04 OVMax= 3.15D-03

 Cycle   7  Pass 0  IDiag  1:
 RMSU=  2.25D-05    CP:  1.02D+00  9.36D-01  7.49D-01  4.00D-01  6.96D-01
                    CP:  6.80D-01
 E= -1560.39936417856     Delta-E=       -0.000067053209 Rises=F Damp=F
 DIIS: error= 9.92D-05 at cycle   7 NSaved=   7.
 NSaved= 7 IEnMin= 7 EnMin= -1560.39936417856     IErMin= 7 ErrMin= 9.92D-05
 ErrMax= 9.92D-05  0.00D+00 EMaxC= 1.00D-01 BMatC= 6.55D-06 BMatP= 7.49D-05
 IDIUse=1 WtCom= 1.00D+00 WtEn= 0.00D+00
 Coeff-Com: -0.381D-03-0.533D-03 0.225D-01 0.325D-01 0.110D+00 0.293D+00
 Coeff-Com:  0.543D+00
 Coeff:     -0.381D-03-0.533D-03 0.225D-01 0.325D-01 0.110D+00 0.293D+00
 Coeff:      0.543D+00
 Gap=     0.129 Goal=   None    Shift=    0.000
 RMSDP=1.29D-05 MaxDP=2.88D-04 DE=-6.71D-05 OVMax= 9.59D-04

 Cycle   8  Pass 0  IDiag  1:
 RMSU=  7.75D-06    CP:  1.02D+00  9.35D-01  7.51D-01  4.05D-01  6.88D-01
                    CP:  7.22D-01  6.57D-01
 E= -1560.39936992748     Delta-E=       -0.000005748926 Rises=F Damp=F
 DIIS: error= 3.39D-05 at cycle   8 NSaved=   8.
 NSaved= 8 IEnMin= 8 EnMin= -1560.39936992748     IErMin= 8 ErrMin= 3.39D-05
 ErrMax= 3.39D-05  0.00D+00 EMaxC= 1.00D-01 BMatC= 3.48D-07 BMatP= 6.55D-06
 IDIUse=1 WtCom= 1.00D+00 WtEn= 0.00D+00
 Coeff-Com:  0.144D-03-0.896D-03 0.467D-02 0.771D-02 0.297D-01 0.931D-01
 Coeff-Com:  0.258D+00 0.608D+00
 Coeff:      0.144D-03-0.896D-03 0.467D-02 0.771D-02 0.297D-01 0.931D-01
 Coeff:      0.258D+00 0.608D+00
 Gap=     0.129 Goal=   None    Shift=    0.000
 RMSDP=3.93D-06 MaxDP=9.81D-05 DE=-5.75D-06 OVMax= 3.81D-04

 Initial convergence to 1.0D-05 achieved.  Increase integral accuracy.
 Cycle   9  Pass 1  IDiag  1:
 E= -1560.39938254415     Delta-E=       -0.000012616672 Rises=F Damp=F
 DIIS: error= 2.11D-05 at cycle   1 NSaved=   1.
 NSaved= 1 IEnMin= 1 EnMin= -1560.39938254415     IErMin= 1 ErrMin= 2.11D-05
 ErrMax= 2.11D-05  0.00D+00 EMaxC= 1.00D-01 BMatC= 1.66D-07 BMatP= 1.66D-07
 IDIUse=1 WtCom= 1.00D+00 WtEn= 0.00D+00
 Coeff-Com:  0.100D+01
 Coeff:      0.100D+01
 Gap=     0.129 Goal=   None    Shift=    0.000
 RMSDP=3.93D-06 MaxDP=9.81D-05 DE=-1.26D-05 OVMax= 2.29D-04

 Cycle  10  Pass 1  IDiag  1:
 RMSU=  1.89D-05    CP:  1.00D+00
 E= -1560.39938254364     Delta-E=        0.000000000518 Rises=F Damp=F
 DIIS: error= 3.11D-05 at cycle   2 NSaved=   2.
 NSaved= 2 IEnMin= 1 EnMin= -1560.39938254415     IErMin= 1 ErrMin= 2.11D-05
 ErrMax= 3.11D-05  0.00D+00 EMaxC= 1.00D-01 BMatC= 1.76D-07 BMatP= 1.66D-07
 IDIUse=1 WtCom= 1.00D+00 WtEn= 0.00D+00
 Coeff-Com:  0.509D+00 0.491D+00
 Coeff:      0.509D+00 0.491D+00
 Gap=     0.129 Goal=   None    Shift=    0.000
 RMSDP=2.52D-06 MaxDP=7.54D-05 DE= 5.18D-10 OVMax= 2.50D-04

 Cycle  11  Pass 1  IDiag  1:
 RMSU=  2.51D-06    CP:  1.00D+00  9.89D-01
 E= -1560.39938269789     Delta-E=       -0.000000154254 Rises=F Damp=F
 DIIS: error= 1.44D-05 at cycle   3 NSaved=   3.
 NSaved= 3 IEnMin= 3 EnMin= -1560.39938269789     IErMin= 3 ErrMin= 1.44D-05
 ErrMax= 1.44D-05  0.00D+00 EMaxC= 1.00D-01 BMatC= 3.55D-08 BMatP= 1.66D-07
 IDIUse=1 WtCom= 1.00D+00 WtEn= 0.00D+00
 Coeff-Com:  0.360D-01 0.308D+00 0.656D+00
 Coeff:      0.360D-01 0.308D+00 0.656D+00
 Gap=     0.129 Goal=   None    Shift=    0.000
 RMSDP=9.25D-07 MaxDP=2.30D-05 DE=-1.54D-07 OVMax= 7.10D-05

 Cycle  12  Pass 1  IDiag  1:
 RMSU=  4.44D-07    CP:  1.00D+00  1.00D+00  6.92D-01
 E= -1560.39938273426     Delta-E=       -0.000000036371 Rises=F Damp=F
 DIIS: error= 2.60D-06 at cycle   4 NSaved=   4.
 NSaved= 4 IEnMin= 4 EnMin= -1560.39938273426     IErMin= 4 ErrMin= 2.60D-06
 ErrMax= 2.60D-06  0.00D+00 EMaxC= 1.00D-01 BMatC= 3.49D-09 BMatP= 3.55D-08
 IDIUse=1 WtCom= 1.00D+00 WtEn= 0.00D+00
 Coeff-Com: -0.190D-02 0.170D+00 0.406D+00 0.427D+00
 Coeff:     -0.190D-02 0.170D+00 0.406D+00 0.427D+00
 Gap=     0.129 Goal=   None    Shift=    0.000
 RMSDP=3.07D-07 MaxDP=1.11D-05 DE=-3.64D-08 OVMax= 2.32D-05

 Cycle  13  Pass 1  IDiag  1:
 RMSU=  2.10D-07    CP:  1.00D+00  1.00D+00  7.07D-01  5.08D-01
 E= -1560.39938273706     Delta-E=       -0.000000002802 Rises=F Damp=F
 DIIS: error= 9.05D-07 at cycle   5 NSaved=   5.
 NSaved= 5 IEnMin= 5 EnMin= -1560.39938273706     IErMin= 5 ErrMin= 9.05D-07
 ErrMax= 9.05D-07  0.00D+00 EMaxC= 1.00D-01 BMatC= 3.02D-10 BMatP= 3.49D-09
 IDIUse=1 WtCom= 1.00D+00 WtEn= 0.00D+00
 Coeff-Com: -0.360D-02 0.908D-01 0.222D+00 0.287D+00 0.404D+00
 Coeff:     -0.360D-02 0.908D-01 0.222D+00 0.287D+00 0.404D+00
 Gap=     0.129 Goal=   None    Shift=    0.000
 RMSDP=1.07D-07 MaxDP=4.52D-06 DE=-2.80D-09 OVMax= 7.79D-06

 Cycle  14  Pass 1  IDiag  1:
 RMSU=  5.04D-08    CP:  1.00D+00  1.00D+00  7.04D-01  5.50D-01  5.67D-01
 E= -1560.39938273741     Delta-E=       -0.000000000351 Rises=F Damp=F
 DIIS: error= 2.00D-07 at cycle   6 NSaved=   6.
 NSaved= 6 IEnMin= 6 EnMin= -1560.39938273741     IErMin= 6 ErrMin= 2.00D-07
 ErrMax= 2.00D-07  0.00D+00 EMaxC= 1.00D-01 BMatC= 1.64D-11 BMatP= 3.02D-10
 IDIUse=1 WtCom= 1.00D+00 WtEn= 0.00D+00
 Coeff-Com: -0.200D-02 0.420D-01 0.103D+00 0.141D+00 0.241D+00 0.475D+00
 Coeff:     -0.200D-02 0.420D-01 0.103D+00 0.141D+00 0.241D+00 0.475D+00
 Gap=     0.129 Goal=   None    Shift=    0.000
 RMSDP=2.35D-08 MaxDP=7.09D-07 DE=-3.51D-10 OVMax= 2.13D-06

 Cycle  15  Pass 1  IDiag  1:
 RMSU=  1.97D-08    CP:  1.00D+00  1.00D+00  7.05D-01  5.40D-01  5.97D-01
                    CP:  8.55D-01
 E= -1560.39938273743     Delta-E=       -0.000000000012 Rises=F Damp=F
 DIIS: error= 7.10D-08 at cycle   7 NSaved=   7.
 NSaved= 7 IEnMin= 7 EnMin= -1560.39938273743     IErMin= 7 ErrMin= 7.10D-08
 ErrMax= 7.10D-08  0.00D+00 EMaxC= 1.00D-01 BMatC= 2.26D-12 BMatP= 1.64D-11
 IDIUse=1 WtCom= 1.00D+00 WtEn= 0.00D+00
 Coeff-Com: -0.220D-03 0.103D-02 0.181D-02 0.592D-02 0.306D-01 0.279D+00
 Coeff-Com:  0.682D+00
 Coeff:     -0.220D-03 0.103D-02 0.181D-02 0.592D-02 0.306D-01 0.279D+00
 Coeff:      0.682D+00
 Gap=     0.129 Goal=   None    Shift=    0.000
 RMSDP=8.61D-09 MaxDP=1.96D-07 DE=-1.18D-11 OVMax= 8.96D-07

 SCF Done:  E(RB3LYP) =  -1560.39938274     A.U. after   15 cycles
            NFock= 15  Conv=0.86D-08     -V/T= 2.0023
 KE= 1.556878846998D+03 PE=-6.815341074193D+03 EE= 2.129925834891D+03
 Leave Link  502 at Fri Sep 29 16:34:59 2023, MaxMem=  6710886400 cpu:             182.2 elap:              23.0
 (Enter /share/software/user/restricted/gaussian/g16.B01/l601.exe)
 Copying SCF densities to generalized density rwf, IOpCl= 0 IROHF=0.

 **********************************************************************

            Population analysis using the SCF Density.

 **********************************************************************

 Orbital symmetries:
       Occupied  (A) (A) (A) (A) (A) (A) (A) (A) (A) (A) (A) (A)
                 (A) (A) (A) (A) (A) (A) (A) (A) (A) (A) (A) (A)
                 (A) (A) (A) (A) (A) (A) (A) (A) (A) (A) (A) (A)
                 (A) (A) (A) (A) (A) (A) (A) (A) (A) (A) (A) (A)
                 (A) (A) (A) (A) (A) (A) (A) (A) (A) (A) (A) (A)
                 (A) (A) (A) (A) (A) (A) (A) (A) (A) (A) (A) (A)
                 (A)
       Virtual   (A) (A) (A) (A) (A) (A) (A) (A) (A) (A) (A) (A)
                 (A) (A) (A) (A) (A) (A) (A) (A) (A) (A) (A) (A)
                 (A) (A) (A) (A) (A) (A) (A) (A) (A) (A) (A) (A)
                 (A) (A) (A) (A) (A) (A) (A) (A) (A) (A) (A) (A)
                 (A) (A) (A) (A) (A) (A) (A) (A) (A) (A) (A) (A)
                 (A) (A) (A) (A) (A) (A) (A) (A) (A) (A) (A) (A)
                 (A) (A) (A) (A) (A) (A) (A) (A) (A) (A) (A) (A)
                 (A) (A) (A) (A) (A) (A) (A) (A) (A) (A) (A) (A)
                 (A) (A) (A) (A) (A) (A) (A) (A) (A) (A) (A) (A)
                 (A) (A) (A) (A) (A) (A) (A) (A) (A) (A) (A) (A)
                 (A) (A) (A) (A) (A) (A) (A) (A) (A) (A) (A) (A)
                 (A) (A) (A) (A) (A) (A) (A) (A) (A) (A) (A) (A)
                 (A) (A) (A) (A) (A) (A) (A) (A) (A) (A) (A) (A)
                 (A) (A) (A) (A) (A) (A) (A) (A) (A) (A) (A) (A)
                 (A) (A) (A) (A) (A) (A) (A) (A) (A) (A) (A) (A)
                 (A) (A) (A) (A) (A) (A) (A) (A) (A) (A) (A) (A)
                 (A) (A) (A) (A) (A) (A) (A) (A) (A) (A) (A) (A)
                 (A) (A) (A)
 The electronic state is 1-A.
 Alpha  occ. eigenvalues --  -88.88554 -88.88546 -19.16965 -19.16926 -19.16603
 Alpha  occ. eigenvalues --  -19.16523 -10.25662 -10.25590 -10.25220 -10.25212
 Alpha  occ. eigenvalues --  -10.25208 -10.25192 -10.25155 -10.25056 -10.23495
 Alpha  occ. eigenvalues --  -10.23441 -10.20663 -10.20648  -7.97327  -7.97322
 Alpha  occ. eigenvalues --   -5.93656  -5.93650  -5.93222  -5.93215  -5.92693
 Alpha  occ. eigenvalues --   -5.92690  -1.11246  -1.11229  -1.07731  -1.07714
 Alpha  occ. eigenvalues --   -0.89253  -0.87497  -0.79505  -0.79388  -0.76824
 Alpha  occ. eigenvalues --   -0.72846  -0.71950  -0.71659  -0.68006  -0.65136
 Alpha  occ. eigenvalues --   -0.61192  -0.59083  -0.55866  -0.55687  -0.55264
 Alpha  occ. eigenvalues --   -0.54419  -0.52144  -0.50303  -0.49129  -0.47650
 Alpha  occ. eigenvalues --   -0.45932  -0.45880  -0.44562  -0.44381  -0.44079
 Alpha  occ. eigenvalues --   -0.43971  -0.41076  -0.40704  -0.40558  -0.40171
 Alpha  occ. eigenvalues --   -0.38992  -0.35385  -0.34890  -0.34708  -0.34370
 Alpha  occ. eigenvalues --   -0.33656  -0.32298  -0.31746  -0.30826  -0.25849
 Alpha  occ. eigenvalues --   -0.22369  -0.22350  -0.18527
 Alpha virt. eigenvalues --   -0.05608   0.00697   0.01807   0.02548   0.03363
 Alpha virt. eigenvalues --    0.03922   0.04687   0.06665   0.06968   0.07317
 Alpha virt. eigenvalues --    0.07373   0.07555   0.08735   0.08830   0.08901
 Alpha virt. eigenvalues --    0.09262   0.10767   0.11156   0.11734   0.12165
 Alpha virt. eigenvalues --    0.13605   0.15253   0.17161   0.18122   0.18351
 Alpha virt. eigenvalues --    0.18709   0.19492   0.20760   0.21174   0.22082
 Alpha virt. eigenvalues --    0.24089   0.24398   0.25423   0.28188   0.29021
 Alpha virt. eigenvalues --    0.29146   0.30765   0.34011   0.34492   0.34607
 Alpha virt. eigenvalues --    0.34879   0.36247   0.36877   0.38157   0.38546
 Alpha virt. eigenvalues --    0.39527   0.40201   0.42021   0.42881   0.43637
 Alpha virt. eigenvalues --    0.44006   0.44894   0.45080   0.46207   0.46373
 Alpha virt. eigenvalues --    0.47236   0.47461   0.49557   0.49808   0.50489
 Alpha virt. eigenvalues --    0.51235   0.51625   0.51691   0.52385   0.53267
 Alpha virt. eigenvalues --    0.54561   0.55777   0.56220   0.56964   0.57147
 Alpha virt. eigenvalues --    0.57545   0.57846   0.58608   0.59514   0.60047
 Alpha virt. eigenvalues --    0.62749   0.63954   0.64492   0.66055   0.67303
 Alpha virt. eigenvalues --    0.67350   0.67854   0.70134   0.71264   0.73053
 Alpha virt. eigenvalues --    0.75876   0.77745   0.79543   0.82522   0.83487
 Alpha virt. eigenvalues --    0.84771   0.86022   0.88470   0.89592   0.90694
 Alpha virt. eigenvalues --    0.92301   0.95424   0.96268   0.97464   0.98417
 Alpha virt. eigenvalues --    0.98864   1.00170   1.01604   1.05201   1.07793
 Alpha virt. eigenvalues --    1.09115   1.11913   1.14517   1.16505   1.25779
 Alpha virt. eigenvalues --    1.26228   1.28897   1.30587   1.51901   1.55288
 Alpha virt. eigenvalues --    1.68255   1.69189   1.70003   1.70581   1.75660
 Alpha virt. eigenvalues --    1.76141   1.77872   1.78668   2.19712   2.19809
 Alpha virt. eigenvalues --    2.22517   2.22741   2.24800   2.24952   2.27231
 Alpha virt. eigenvalues --    2.27663   2.28418   2.29465   2.51171   2.51667
 Alpha virt. eigenvalues --    2.53511   2.58935   2.68757   2.71325   2.71971
 Alpha virt. eigenvalues --    2.72836   2.73434   2.73701   2.74006   2.75666
 Alpha virt. eigenvalues --    2.77938   2.79048   2.79753   2.79977   2.82651
 Alpha virt. eigenvalues --    2.83469   2.83825   2.85971   2.86655   2.92325
 Alpha virt. eigenvalues --    2.98327   3.00310   3.01516   3.01740   3.03664
 Alpha virt. eigenvalues --    3.03815   3.06937   3.07252   3.10567   3.11215
 Alpha virt. eigenvalues --    3.13274   3.13730   3.18758   3.25481   4.82757
 Alpha virt. eigenvalues --    4.83862   4.84451   4.86310   4.87723   4.88108
 Alpha virt. eigenvalues --    4.96997   4.98823   5.11058   5.11521   5.12724
 Alpha virt. eigenvalues --    5.13669   7.61571   7.62176  17.16836  17.19041
 Alpha virt. eigenvalues --   17.34081  17.34478  17.38224  17.41428  23.14248
 Alpha virt. eigenvalues --   23.25599  23.30836  23.33177  23.33300  23.40224
 Alpha virt. eigenvalues --   23.48232  23.49071  23.49690  23.58373  23.66370
 Alpha virt. eigenvalues --   23.67132  49.86840  49.88224  49.88640  49.89317
 Alpha virt. eigenvalues --  188.74775 188.75781
          Condensed to atoms (all electrons):
               1          2          3          4          5          6
     1  C    5.269908   0.095534   0.064533  -0.087457   0.300097   0.249600
     2  C    0.095534   5.488774   0.058155  -0.102411  -0.021058  -0.068243
     3  C    0.064533   0.058155   6.160420   0.304699  -0.118845   0.006002
     4  S   -0.087457  -0.102411   0.304699  15.361253   0.192438   0.005642
     5  C    0.300097  -0.021058  -0.118845   0.192438   5.773049  -0.060088
     6  O    0.249600  -0.068243   0.006002   0.005642  -0.060088   8.275724
     7  O   -0.078963   0.253297  -0.098651   0.004901   0.006693   0.000104
     8  C   -0.051720  -0.039929   0.001051  -0.000464   0.004457   0.192188
     9  C   -0.038724  -0.045476   0.003244  -0.000514   0.000676  -0.053543
    10  H   -0.016417   0.008997   0.000033  -0.024681   0.363851   0.002511
    11  H    0.002196   0.001794   0.000128   0.000066  -0.000204  -0.029599
    12  H   -0.000311  -0.000800  -0.001129  -0.000144   0.000681  -0.048823
    13  H   -0.001277  -0.000370   0.000447  -0.000077  -0.001062   0.001541
    14  H    0.001601   0.003763  -0.000161   0.000050   0.000091   0.004040
    15  C    0.009148   0.009084   0.015156  -0.092331   0.011908  -0.000147
    16  C   -0.001037   0.008773   0.005694  -0.001215   0.000516   0.000000
    17  C    0.000011  -0.001098   0.008265   0.001466  -0.000005   0.000000
    18  C   -0.000008   0.000650   0.012293  -0.000189   0.000002  -0.000000
    19  S    0.001781  -0.000543  -0.096319   0.001465  -0.000166  -0.000075
    20  O   -0.000030   0.000437   0.009279   0.014667   0.000232  -0.000000
    21  O    0.000000   0.000000  -0.000142  -0.000066  -0.000000   0.000000
    22  C    0.000001   0.000002  -0.000386  -0.000402  -0.000007  -0.000000
    23  C   -0.000000   0.000001   0.000022   0.000351   0.000000  -0.000000
    24  H    0.000000  -0.000001  -0.000057  -0.000625  -0.000004  -0.000000
    25  H   -0.000001  -0.000004   0.000048   0.000107   0.000005   0.000000
    26  H   -0.000000  -0.000000   0.000010   0.000096   0.000000  -0.000000
    27  H    0.000000  -0.000000  -0.000004  -0.000015  -0.000000  -0.000000
    28  H    0.000000   0.000007  -0.000386   0.000020  -0.000000  -0.000000
               7          8          9         10         11         12
     1  C   -0.078963  -0.051720  -0.038724  -0.016417   0.002196  -0.000311
     2  C    0.253297  -0.039929  -0.045476   0.008997   0.001794  -0.000800
     3  C   -0.098651   0.001051   0.003244   0.000033   0.000128  -0.001129
     4  S    0.004901  -0.000464  -0.000514  -0.024681   0.000066  -0.000144
     5  C    0.006693   0.004457   0.000676   0.363851  -0.000204   0.000681
     6  O    0.000104   0.192188  -0.053543   0.002511  -0.029599  -0.048823
     7  O    8.305173  -0.053624   0.189843  -0.000118   0.004039   0.001564
     8  C   -0.053624   5.288208   0.175469  -0.000193   0.363271   0.362087
     9  C    0.189843   0.175469   5.291295   0.000130  -0.029186  -0.055764
    10  H   -0.000118  -0.000193   0.000130   0.462739  -0.000055   0.000082
    11  H    0.004039   0.363271  -0.029186  -0.000055   0.531077  -0.036495
    12  H    0.001564   0.362087  -0.055764   0.000082  -0.036495   0.566197
    13  H   -0.048119  -0.058477   0.364824   0.000021  -0.002429   0.010224
    14  H   -0.030014  -0.029880   0.362772  -0.000005   0.000218  -0.002436
    15  C    0.009387   0.000000  -0.000027  -0.000393  -0.000007   0.000056
    16  C    0.000419  -0.000001   0.000009   0.000006  -0.000000   0.000000
    17  C   -0.000034  -0.000000  -0.000000   0.000000   0.000000  -0.000000
    18  C    0.000275   0.000000  -0.000001   0.000000  -0.000000   0.000000
    19  S    0.015199   0.000459  -0.000529   0.000020  -0.000023   0.000018
    20  O    0.000000   0.000000   0.000000   0.000009   0.000000  -0.000000
    21  O   -0.000000  -0.000000   0.000000  -0.000000  -0.000000   0.000000
    22  C    0.000000   0.000000  -0.000000  -0.000000  -0.000000  -0.000000
    23  C    0.000000  -0.000000   0.000000   0.000000   0.000000  -0.000000
    24  H   -0.000000   0.000000  -0.000000  -0.000000   0.000000   0.000000
    25  H    0.000000  -0.000000   0.000000   0.000000   0.000000   0.000000
    26  H   -0.000000  -0.000000   0.000000   0.000000   0.000000   0.000000
    27  H    0.000000  -0.000000  -0.000000  -0.000000  -0.000000  -0.000000
    28  H    0.000010   0.000000  -0.000000   0.000000  -0.000000   0.000000
              13         14         15         16         17         18
     1  C   -0.001277   0.001601   0.009148  -0.001037   0.000011  -0.000008
     2  C   -0.000370   0.003763   0.009084   0.008773  -0.001098   0.000650
     3  C    0.000447  -0.000161   0.015156   0.005694   0.008265   0.012293
     4  S   -0.000077   0.000050  -0.092331  -0.001215   0.001466  -0.000189
     5  C   -0.001062   0.000091   0.011908   0.000516  -0.000005   0.000002
     6  O    0.001541   0.004040  -0.000147   0.000000   0.000000  -0.000000
     7  O   -0.048119  -0.030014   0.009387   0.000419  -0.000034   0.000275
     8  C   -0.058477  -0.029880   0.000000  -0.000001  -0.000000   0.000000
     9  C    0.364824   0.362772  -0.000027   0.000009  -0.000000  -0.000001
    10  H    0.000021  -0.000005  -0.000393   0.000006   0.000000   0.000000
    11  H   -0.002429   0.000218  -0.000007  -0.000000   0.000000  -0.000000
    12  H    0.010224  -0.002436   0.000056   0.000000  -0.000000   0.000000
    13  H    0.561879  -0.034508   0.000044  -0.000002  -0.000000   0.000002
    14  H   -0.034508   0.527435  -0.000002   0.000001  -0.000000  -0.000002
    15  C    0.000044  -0.000002   6.146525   0.071201   0.067519  -0.120274
    16  C   -0.000002   0.000001   0.071201   5.471266   0.096153  -0.019106
    17  C   -0.000000  -0.000000   0.067519   0.096153   5.277595   0.295118
    18  C    0.000002  -0.000002  -0.120274  -0.019106   0.295118   5.775997
    19  S   -0.000139  -0.000526   0.297717  -0.100447  -0.086775   0.193650
    20  O   -0.000000  -0.000000  -0.102118   0.264760  -0.078611   0.006919
    21  O    0.000000  -0.000000   0.006045  -0.068361   0.246093  -0.059127
    22  C   -0.000000  -0.000000   0.005086  -0.044975  -0.040152   0.000690
    23  C   -0.000000   0.000000   0.000462  -0.038210  -0.052863   0.004935
    24  H    0.000000   0.000000  -0.000117   0.002813   0.001453   0.000087
    25  H    0.000000   0.000000   0.000485   0.000585  -0.000022  -0.001497
    26  H    0.000000   0.000000  -0.001166   0.000625  -0.002938   0.000120
    27  H   -0.000000   0.000000   0.000114   0.001505   0.003169  -0.000178
    28  H   -0.000000  -0.000000  -0.000048   0.008770  -0.016556   0.364099
              19         20         21         22         23         24
     1  C    0.001781  -0.000030   0.000000   0.000001  -0.000000   0.000000
     2  C   -0.000543   0.000437   0.000000   0.000002   0.000001  -0.000001
     3  C   -0.096319   0.009279  -0.000142  -0.000386   0.000022  -0.000057
     4  S    0.001465   0.014667  -0.000066  -0.000402   0.000351  -0.000625
     5  C   -0.000166   0.000232  -0.000000  -0.000007   0.000000  -0.000004
     6  O   -0.000075  -0.000000   0.000000  -0.000000  -0.000000  -0.000000
     7  O    0.015199   0.000000  -0.000000   0.000000   0.000000  -0.000000
     8  C    0.000459   0.000000  -0.000000   0.000000  -0.000000   0.000000
     9  C   -0.000529   0.000000   0.000000  -0.000000   0.000000  -0.000000
    10  H    0.000020   0.000009  -0.000000  -0.000000   0.000000  -0.000000
    11  H   -0.000023   0.000000  -0.000000  -0.000000   0.000000   0.000000
    12  H    0.000018  -0.000000   0.000000  -0.000000  -0.000000   0.000000
    13  H   -0.000139  -0.000000   0.000000  -0.000000  -0.000000   0.000000
    14  H   -0.000526  -0.000000  -0.000000  -0.000000   0.000000   0.000000
    15  C    0.297717  -0.102118   0.006045   0.005086   0.000462  -0.000117
    16  C   -0.100447   0.264760  -0.068361  -0.044975  -0.038210   0.002813
    17  C   -0.086775  -0.078611   0.246093  -0.040152  -0.052863   0.001453
    18  C    0.193650   0.006919  -0.059127   0.000690   0.004935   0.000087
    19  S   15.366883   0.005305   0.005559  -0.000391  -0.000555   0.000069
    20  O    0.005305   8.298015  -0.000240   0.190733  -0.050979  -0.031523
    21  O    0.005559  -0.000240   8.279844  -0.052365   0.186604   0.004308
    22  C   -0.000391   0.190733  -0.052365   5.271406   0.178714   0.361256
    23  C   -0.000555  -0.050979   0.186604   0.178714   5.293584  -0.028891
    24  H    0.000069  -0.031523   0.004308   0.361256  -0.028891   0.532946
    25  H   -0.000197  -0.048718   0.001360   0.364591  -0.056275  -0.037196
    26  H   -0.000041   0.001139  -0.047726  -0.056540   0.363243  -0.002532
    27  H    0.000053   0.003882  -0.028936  -0.028660   0.364431   0.000251
    28  H   -0.024769  -0.000112   0.002634   0.000113  -0.000096  -0.000005
              25         26         27         28
     1  C   -0.000001  -0.000000   0.000000   0.000000
     2  C   -0.000004  -0.000000  -0.000000   0.000007
     3  C    0.000048   0.000010  -0.000004  -0.000386
     4  S    0.000107   0.000096  -0.000015   0.000020
     5  C    0.000005   0.000000  -0.000000  -0.000000
     6  O    0.000000  -0.000000  -0.000000  -0.000000
     7  O    0.000000  -0.000000   0.000000   0.000010
     8  C   -0.000000  -0.000000  -0.000000   0.000000
     9  C    0.000000   0.000000  -0.000000  -0.000000
    10  H    0.000000   0.000000  -0.000000   0.000000
    11  H    0.000000   0.000000  -0.000000  -0.000000
    12  H    0.000000   0.000000  -0.000000   0.000000
    13  H    0.000000   0.000000  -0.000000  -0.000000
    14  H    0.000000   0.000000   0.000000  -0.000000
    15  C    0.000485  -0.001166   0.000114  -0.000048
    16  C    0.000585   0.000625   0.001505   0.008770
    17  C   -0.000022  -0.002938   0.003169  -0.016556
    18  C   -0.001497   0.000120  -0.000178   0.364099
    19  S   -0.000197  -0.000041   0.000053  -0.024769
    20  O   -0.048718   0.001139   0.003882  -0.000112
    21  O    0.001360  -0.047726  -0.028936   0.002634
    22  C    0.364591  -0.056540  -0.028660   0.000113
    23  C   -0.056275   0.363243   0.364431  -0.000096
    24  H   -0.037196  -0.002532   0.000251  -0.000005
    25  H    0.562216   0.010119  -0.002688   0.000026
    26  H    0.010119   0.564372  -0.035151   0.000063
    27  H   -0.002688  -0.035151   0.525820  -0.000053
    28  H    0.000026   0.000063  -0.000053   0.462181
 Mulliken charges:
               1
     1  C    0.281534
     2  C    0.350666
     3  C   -0.333399
     4  S    0.423371
     5  C   -0.453257
     6  O   -0.476833
     7  O   -0.481381
     8  C   -0.152902
     9  C   -0.164497
    10  H    0.203461
    11  H    0.195210
    12  H    0.204995
    13  H    0.207480
    14  H    0.197566
    15  C   -0.333307
    16  C    0.340255
    17  C    0.282211
    18  C   -0.454456
    19  S    0.423317
    20  O   -0.483045
    21  O   -0.475486
    22  C   -0.148715
    23  C   -0.164480
    24  H    0.197767
    25  H    0.207056
    26  H    0.206306
    27  H    0.196460
    28  H    0.204103
 Sum of Mulliken charges =  -0.00000
 Mulliken charges with hydrogens summed into heavy atoms:
               1
     1  C    0.281534
     2  C    0.350666
     3  C   -0.333399
     4  S    0.423371
     5  C   -0.249797
     6  O   -0.476833
     7  O   -0.481381
     8  C    0.247303
     9  C    0.240549
    15  C   -0.333307
    16  C    0.340255
    17  C    0.282211
    18  C   -0.250353
    19  S    0.423317
    20  O   -0.483045
    21  O   -0.475486
    22  C    0.256108
    23  C    0.238286
 Electronic spatial extent (au):  <R**2>=           5921.7291
 Charge=             -0.0000 electrons
 Dipole moment (field-independent basis, Debye):
    X=              0.0465    Y=              0.0080    Z=              0.5626  Tot=              0.5646
 Quadrupole moment (field-independent basis, Debye-Ang):
   XX=            -92.6550   YY=           -113.9803   ZZ=           -121.4628
   XY=            -17.6105   XZ=             -0.4253   YZ=             -0.7126
 Traceless Quadrupole moment (field-independent basis, Debye-Ang):
   XX=             16.7111   YY=             -4.6143   ZZ=            -12.0968
   XY=            -17.6105   XZ=             -0.4253   YZ=             -0.7126
 Octapole moment (field-independent basis, Debye-Ang**2):
  XXX=              2.2774  YYY=              1.6338  ZZZ=              7.6596  XYY=             -1.1100
  XXY=             -1.0357  XXZ=             18.6863  XZZ=              0.5116  YZZ=             -1.6107
  YYZ=             -1.2111  XYZ=             -5.4983
 Hexadecapole moment (field-independent basis, Debye-Ang**3):
 XXXX=          -5334.5096 YYYY=          -1597.8340 ZZZZ=           -218.9669 XXXY=           -547.5325
 XXXZ=            -47.3963 YYYX=             18.4377 YYYZ=              8.9115 ZZZX=             -0.1090
 ZZZY=             -2.6655 XXYY=          -1132.1260 XXZZ=          -1007.3587 YYZZ=           -342.4647
 XXYZ=             -8.1777 YYXZ=             17.3867 ZZXY=            -33.1943
 N-N= 1.568137009567D+03 E-N=-6.815341066280D+03  KE= 1.556878846998D+03
 No NMR shielding tensors so no spin-rotation constants.
 Leave Link  601 at Fri Sep 29 16:35:00 2023, MaxMem=  6710886400 cpu:               1.9 elap:               0.4
 (Enter /share/software/user/restricted/gaussian/g16.B01/l701.exe)
 ... and contract with generalized density number  0.
 Compute integral first derivatives.
 Leave Link  701 at Fri Sep 29 16:35:00 2023, MaxMem=  6710886400 cpu:               2.3 elap:               0.5
 (Enter /share/software/user/restricted/gaussian/g16.B01/l702.exe)
 L702 exits ... SP integral derivatives will be done elsewhere.
 Leave Link  702 at Fri Sep 29 16:35:00 2023, MaxMem=  6710886400 cpu:               0.2 elap:               0.1
 (Enter /share/software/user/restricted/gaussian/g16.B01/l703.exe)
 Integral derivatives from FoFJK, PRISM(SPDF).
 Compute integral first derivatives, UseDBF=F ICtDFT=           0.
 Calling FoFJK, ICntrl=      2127 FMM=F ISym2X=0 I1Cent= 0 IOpClX= 0 NMat=1 NMatS=1 NMatT=0.
 FoFJK:  IHMeth= 1 ICntrl=    2127 DoSepK=F KAlg= 0 I1Cent=           0 FoldK=F
 IRaf=         0 NMat=       1 IRICut=       1 DoRegI=T DoRafI=F ISym2E= 0 IDoP0=0 IntGTp=1.
 FoFCou: FMM=F IPFlag=           0 FMFlag=      100000 FMFlg1=         800
         NFxFlg=           0 DoJE=F BraDBF=F KetDBF=F FulRan=T
         wScrn=  0.000000 ICntrl=      2127 IOpCl=  0 I1Cent=           0 NGrid=           0
         NMat0=    1 NMatS0=      1 NMatT0=    0 NMatD0=    1 NMtDS0=    0 NMtDT0=    0
 Symmetry not used in FoFCou.
 Leave Link  703 at Fri Sep 29 16:35:05 2023, MaxMem=  6710886400 cpu:              40.4 elap:               5.2
 (Enter /share/software/user/restricted/gaussian/g16.B01/l716.exe)
 Dipole        = 1.82782943D-02 3.14951477D-03 2.21342532D-01
 ***** Axes restored to original set *****
 -------------------------------------------------------------------
 Center     Atomic                   Forces (Hartrees/Bohr)
 Number     Number              X              Y              Z
 -------------------------------------------------------------------
      1        6          -0.005137031   -0.064922240   -0.023064027
      2        6           0.009936813   -0.063466876    0.002494472
      3        6          -0.006079448    0.035669863    0.001129979
      4       16           0.004107645   -0.019835541   -0.002499799
      5        6           0.007250566    0.054121228    0.013101133
      6        8          -0.010950179    0.005790145   -0.005534690
      7        8           0.016303254   -0.000149551    0.005415760
      8        6           0.002690632    0.022397103    0.011448264
      9        6          -0.005927830    0.025231750   -0.002766688
     10        1           0.004693842   -0.002153243    0.001692037
     11        1           0.000803606   -0.004742473   -0.001012005
     12        1           0.003588420    0.001692235   -0.001827546
     13        1          -0.003381948    0.000176382    0.002060166
     14        1          -0.000606591   -0.005868621   -0.000713802
     15        6           0.005594944   -0.036336570    0.001969870
     16        6          -0.011143078    0.061410040   -0.002431995
     17        6           0.008039835    0.068437005    0.011363857
     18        6          -0.009656063   -0.054509878   -0.003275544
     19       16          -0.002293594    0.020550646   -0.000567569
     20        8          -0.016785156   -0.001683447   -0.010800805
     21        8           0.011319826   -0.005498402    0.003066999
     22        6           0.006424094   -0.023527237    0.008022792
     23        6          -0.003852627   -0.023668089   -0.004749996
     24        1           0.000268215    0.005703876   -0.000520817
     25        1           0.003218761   -0.000790607   -0.002167331
     26        1          -0.003138441   -0.000955266    0.002753923
     27        1          -0.000989414    0.005039925    0.000005124
     28        1          -0.004299053    0.001887844   -0.002591765
 -------------------------------------------------------------------
 Cartesian Forces:  Max     0.068437005 RMS     0.019301589
 End of FrcOut F.D. properties on file   721 Mask=       0 NFrqRd=     2 NDeriv=     1 ND12= 1 LenFil=       4:
 Frequencies=    0.000000    0.085600
 Leave Link  716 at Fri Sep 29 16:35:05 2023, MaxMem=  6710886400 cpu:               0.4 elap:               0.1
 (Enter /share/software/user/restricted/gaussian/g16.B01/l103.exe)

 GradGradGradGradGradGradGradGradGradGradGradGradGradGradGradGradGradGrad
 Berny optimization.
 FormGI is forming the generalized inverse of G from B-inverse, IUseBI=4.
 Internal  Forces:  Max     0.050560711 RMS     0.009858383
 Search for a local minimum.
 Step number   1 out of a maximum of  168
 All quantities printed in internal units (Hartrees-Bohrs-Radians)
 RMS Force = .98584D-02 SwitMx=.10000D-02 MixMth= 1
 Mixed Optimization -- RFO/linear search
 Second derivative matrix not updated -- first step.
 ITU=  0
     Eigenvalues ---    0.00924   0.00931   0.01022   0.01030   0.01285
     Eigenvalues ---    0.01296   0.01438   0.01505   0.01520   0.01669
     Eigenvalues ---    0.01680   0.01708   0.01721   0.01788   0.01789
     Eigenvalues ---    0.01888   0.01897   0.04684   0.04697   0.05292
     Eigenvalues ---    0.05294   0.05752   0.05755   0.06434   0.06445
     Eigenvalues ---    0.10450   0.10499   0.11548   0.11551   0.11619
     Eigenvalues ---    0.11636   0.12812   0.12832   0.15935   0.16000
     Eigenvalues ---    0.19638   0.19771   0.20240   0.20522   0.23655
     Eigenvalues ---    0.23667   0.24635   0.24837   0.24912   0.24936
     Eigenvalues ---    0.24952   0.24992   0.25760   0.25903   0.28601
     Eigenvalues ---    0.28686   0.29352   0.29457   0.33958   0.33993
     Eigenvalues ---    0.34032   0.34075   0.34235   0.34258   0.34336
     Eigenvalues ---    0.34365   0.36117   0.36163   0.36779   0.36845
     Eigenvalues ---    0.37309   0.37353   0.38346   0.39060   0.39107
     Eigenvalues ---    0.39811   0.39909   0.41035   0.41048   0.49409
     Eigenvalues ---    0.49461   0.50183   0.50239
 RFO step:  Lambda=-3.93468274D-02 EMin= 9.24177270D-03
 Linear search not attempted -- first point.
 Maximum step size (   0.300) exceeded in Quadratic search.
    -- Step size scaled by   0.985
 Iteration  1 RMS(Cart)=  0.06385043 RMS(Int)=  0.00083186
 Iteration  2 RMS(Cart)=  0.00149625 RMS(Int)=  0.00027421
 Iteration  3 RMS(Cart)=  0.00000129 RMS(Int)=  0.00027421
 Iteration  4 RMS(Cart)=  0.00000000 RMS(Int)=  0.00027421
 ITry= 1 IFail=0 DXMaxC= 1.82D-01 DCOld= 1.00D+10 DXMaxT= 3.00D-01 DXLimC= 3.00D+00 Rises=F
 Variable       Old X    -DE/DX   Delta X   Delta X   Delta X     New X
                                 (Linear)    (Quad)   (Total)
    R1        2.70086  -0.00331   0.00000  -0.01231  -0.01229   2.68857
    R2        2.68878  -0.04427   0.00000  -0.09591  -0.09596   2.59282
    R3        2.58456   0.02459   0.00000   0.04260   0.04260   2.62717
    R4        2.74015  -0.05056   0.00000  -0.11936  -0.11931   2.62083
    R5        2.58974   0.02175   0.00000   0.03786   0.03788   2.62762
    R6        3.40780   0.00506   0.00000   0.01973   0.01977   3.42757
    R7        2.73865  -0.02104   0.00000  -0.04903  -0.04903   2.68962
    R8        3.31791   0.01204   0.00000   0.03769   0.03764   3.35555
    R9        2.03898  -0.00439   0.00000  -0.01080  -0.01080   2.02818
   R10        2.71240   0.02056   0.00000   0.04830   0.04824   2.76064
   R11        2.71094   0.01996   0.00000   0.04701   0.04695   2.75789
   R12        2.88599  -0.00314   0.00000  -0.00896  -0.00888   2.87710
   R13        2.06718  -0.00419   0.00000  -0.01078  -0.01078   2.05640
   R14        2.07343  -0.00221   0.00000  -0.00575  -0.00575   2.06768
   R15        2.07276  -0.00215   0.00000  -0.00557  -0.00557   2.06720
   R16        2.06936  -0.00517   0.00000  -0.01336  -0.01336   2.05600
   R17        2.74163  -0.05055   0.00000  -0.11951  -0.11951   2.62212
   R18        3.40384   0.00637   0.00000   0.02422   0.02416   3.42799
   R19        2.69954  -0.00287   0.00000  -0.01174  -0.01150   2.68804
   R20        2.58848   0.02176   0.00000   0.03774   0.03780   2.62629
   R21        2.68913  -0.04387   0.00000  -0.09533  -0.09529   2.59384
   R22        2.58563   0.02445   0.00000   0.04248   0.04259   2.62822
   R23        3.32016   0.01126   0.00000   0.03545   0.03543   3.35559
   R24        2.03828  -0.00409   0.00000  -0.01006  -0.01006   2.02822
   R25        2.71029   0.01962   0.00000   0.04607   0.04599   2.75628
   R26        2.71324   0.01955   0.00000   0.04670   0.04667   2.75991
   R27        2.88511  -0.00312   0.00000  -0.00903  -0.00925   2.87586
   R28        2.06896  -0.00488   0.00000  -0.01258  -0.01258   2.05638
   R29        2.07204  -0.00184   0.00000  -0.00476  -0.00476   2.06728
   R30        2.07401  -0.00233   0.00000  -0.00605  -0.00605   2.06795
   R31        2.06767  -0.00451   0.00000  -0.01160  -0.01160   2.05607
    A1        1.98659   0.00296   0.00000   0.00588   0.00565   1.99224
    A2        2.16318  -0.00784   0.00000  -0.02762  -0.02778   2.13539
    A3        2.13090   0.00507   0.00000   0.02401   0.02389   2.15479
    A4        1.98896   0.00471   0.00000   0.01231   0.01210   2.00106
    A5        2.12998  -0.00024   0.00000  -0.00119  -0.00146   2.12852
    A6        2.15893  -0.00417   0.00000  -0.00699  -0.00731   2.15162
    A7        1.88356   0.00541   0.00000   0.01829   0.01834   1.90190
    A8        2.29739  -0.01004   0.00000  -0.03368  -0.03378   2.26362
    A9        2.09963   0.00467   0.00000   0.01656   0.01649   2.11611
   A10        1.63371  -0.01540   0.00000  -0.04328  -0.04329   1.59042
   A11        1.92937   0.00247   0.00000   0.00905   0.00894   1.93831
   A12        2.19194   0.00178   0.00000   0.01037   0.01042   2.20237
   A13        2.16187  -0.00425   0.00000  -0.01942  -0.01936   2.14251
   A14        1.93544   0.00842   0.00000   0.03765   0.03758   1.97302
   A15        1.93499   0.00559   0.00000   0.02932   0.02921   1.96420
   A16        1.94261  -0.00347   0.00000  -0.01645  -0.01636   1.92625
   A17        1.87815   0.00158   0.00000  -0.00189  -0.00184   1.87630
   A18        1.89042   0.00177   0.00000   0.01606   0.01576   1.90618
   A19        1.92424   0.00089   0.00000   0.01113   0.01109   1.93534
   A20        1.93748  -0.00139   0.00000  -0.01704  -0.01702   1.92047
   A21        1.88899   0.00084   0.00000   0.00940   0.00943   1.89843
   A22        1.93437  -0.00265   0.00000  -0.01381  -0.01392   1.92045
   A23        1.89521   0.00108   0.00000   0.01122   0.01096   1.90618
   A24        1.87799   0.00118   0.00000  -0.00304  -0.00291   1.87508
   A25        1.94139  -0.00164   0.00000  -0.01809  -0.01796   1.92343
   A26        1.92469   0.00119   0.00000   0.01390   0.01383   1.93852
   A27        1.88836   0.00102   0.00000   0.01084   0.01089   1.89924
   A28        2.29573  -0.01050   0.00000  -0.03568  -0.03572   2.26001
   A29        2.10312   0.00469   0.00000   0.01611   0.01608   2.11920
   A30        1.88409   0.00579   0.00000   0.01938   0.01941   1.90350
[...]
 0298828,-0.01193531,-0.01521490,-0.03775400,0.00442458,-0.00295043,0.0
 0775011,-0.00102649,-0.00169816,0.00476283,0.00057197,-0.00163114,-0.0
 0097424,0.05681420,0.06867746,0.09701413,-0.00050054,0.00046928,-0.000
 06898,0.00058086,0.00088117,0.00024372,-0.00051986,-0.00061277,-0.0001
 0618,-0.00031640,-0.00007796,-0.00018184,0.00081938,-0.00008114,0.0001
 7486,0.00020649,-0.00025808,-0.00000845,-0.00028484,-0.00121043,-0.000
 24006,0.00004263,0.00012179,0.00009847,-0.00029973,0.00053926,-0.00010
 594,-0.00005097,0.00006199,0.00001057,0.00004554,-0.00002939,0.0000066
 8,-0.00003821,0.00000214,-0.00001976,0.00008306,-0.00004719,0.00007264
 ,-0.00000454,-0.00004841,-0.00000748,-0.00348896,-0.00137470,-0.000503
 17,0.01498978,-0.01382062,0.00583650,-0.00034915,-0.00642673,0.0013595
 0,-0.00012903,0.00080958,0.00009272,-0.00142035,-0.00222032,-0.0008125
 9,-0.10054412,0.05073411,-0.02500519,-0.02695437,-0.01266159,0.0014625
 0,0.46941685,0.00050955,-0.00087412,0.00011343,-0.00133612,-0.00143932
 ,-0.00036062,0.00089547,0.00006867,0.00038087,0.00140167,-0.00063905,0
 .00006784,-0.00083040,0.00031038,-0.00001747,-0.00035952,0.00100899,0.
 00005267,0.00061032,0.00212450,0.00037646,-0.00021391,-0.00036617,-0.0
 0025431,0.00053980,-0.00086981,0.00016738,-0.00005006,0.00013790,-0.00
 001189,-0.00005238,0.00008873,-0.00000108,0.00008611,0.00001204,0.0000
 6307,-0.00014057,0.00007206,-0.00011812,0.00001611,0.00009931,0.000009
 70,-0.00304690,0.00104617,0.00017313,0.00995712,-0.05459033,0.00691445
 ,-0.00524596,0.01278280,0.00105286,0.00195530,-0.00249669,-0.00014142,
 0.00182523,0.00153484,-0.00045658,0.01806551,-0.12135009,0.01668284,-0
 .03966584,-0.02379197,0.00520342,0.11198301,0.50962808,0.00009054,0.00
 023789,-0.00013594,-0.00001383,0.00034618,0.00001444,0.00011127,-0.000
 34807,-0.00029888,-0.00034978,0.00038450,0.00000902,0.00013081,-0.0002
 2225,-0.00002785,0.00007989,-0.00024220,-0.00003584,0.00003433,-0.0003
 4521,-0.00002962,0.00004501,0.00006953,0.00009624,-0.00010500,0.000165
 52,0.00002309,0.00002078,-0.00003255,-0.00000298,0.00001017,-0.0000179
 2,-0.00000275,-0.00001662,-0.00000431,-0.00002471,0.00002777,-0.000022
 40,0.00001117,-0.00000851,-0.00001848,0.00000108,-0.00177046,-0.001397
 38,0.00077386,0.00328488,-0.00524863,-0.00378593,-0.00155390,0.0009787
 3,0.00352986,-0.00025858,-0.00034943,-0.00124907,-0.00033584,-0.001010
 38,0.00099571,-0.02004510,0.02995570,-0.06618275,-0.01543314,-0.008621
 12,0.00538122,0.02413850,0.05210784,0.58300116,-0.00008846,-0.00016093
 ,-0.00002840,0.00022160,-0.00008989,-0.00000743,0.00001253,0.00026726,
 0.00008545,-0.00005716,0.00005276,0.00002201,-0.00035633,0.00011768,-0
 .00002738,-0.00004923,-0.00005490,0.00000047,-0.00029852,0.00020833,0.
 00002317,0.00003935,0.00007002,-0.00003018,0.00004264,-0.00021375,0.00
 004547,-0.00001127,0.00003048,-0.00000106,-0.00002938,0.00000250,0.000
 00049,0.00000746,-0.00000748,0.00000019,-0.00002048,0.00002900,-0.0000
 1940,0.00001080,-0.00000566,0.00000041,0.00021085,-0.00070581,0.000063
 81,-0.00075270,0.00581440,0.00225435,0.01389559,0.01572689,0.00796608,
 -0.00307661,0.00108587,-0.00021642,-0.00145266,0.00219017,-0.00065697,
 -0.02911042,0.01214743,0.00349465,-0.09902019,-0.04709062,-0.03132301,
 -0.15730217,0.00485687,0.04643208,0.47922032,0.00002058,-0.00029038,-0
 .00001268,0.00004195,-0.00037474,-0.00008459,-0.00002329,0.00125438,-0
 .00013150,-0.00033010,0.00041210,0.00002339,-0.00074560,0.00015239,-0.
 00007949,-0.00012374,-0.00010357,-0.00001793,-0.00023905,0.00042790,0.
 00006380,0.00007012,0.00006382,-0.00002451,0.00012145,-0.00036507,0.00
 006994,0.00003032,-0.00003187,-0.00000926,-0.00004689,0.00000419,-0.00
 000664,0.00001523,-0.00001095,-0.00000217,-0.00004247,0.00004717,-0.00
 004100,0.00001230,-0.00000031,0.00000477,-0.00120338,-0.00248301,0.000
 36779,0.00438314,0.01315654,-0.00035260,-0.00851067,-0.05395625,-0.013
 45567,0.00330330,0.00126786,-0.00022513,-0.00201682,0.00145882,0.00049
 587,0.04186901,-0.02169645,-0.00862500,-0.01458830,-0.11974343,-0.0246
 2522,-0.01469230,-0.07757430,0.00496040,-0.11431409,0.51864950,0.00003
 237,-0.00019663,0.00005424,-0.00016920,-0.00022948,-0.00008128,0.00019
 177,0.00028870,0.00013080,0.00019006,-0.00019157,0.00004152,-0.0002632
 8,0.00013428,-0.00007157,-0.00008833,0.00016898,-0.00000228,-0.0000540
 3,0.00043223,-0.00001499,-0.00003013,-0.00002463,-0.00004623,0.0000987
 3,-0.00025477,0.00009700,-0.00001754,0.00003290,0.00001140,-0.00002488
 ,0.00001732,0.00000240,0.00002245,-0.00000064,0.00000309,-0.00004263,0
 .00002992,-0.00003951,0.00000755,0.00001214,0.00000500,-0.00052820,-0.
 00005057,-0.00112149,-0.00101131,0.00029434,0.00306571,0.00217218,-0.0
 0104117,-0.00478692,-0.00129623,0.00141026,0.00087009,-0.00063360,0.00
 109510,0.00154371,-0.01025162,0.00461287,0.00530660,-0.02160243,-0.038
 28470,-0.07449570,0.04535974,0.00164273,-0.11413021,0.01179926,-0.0584
 9899,0.56695973,-0.00000292,0.00000437,0.00000059,-0.00000036,-0.00002
 557,-0.00000348,0.00010797,-0.00000798,0.00000817,0.00003321,0.0000680
 5,0.00000083,-0.00006836,-0.00000153,-0.00000001,0.00000975,-0.0000513
 3,-0.00000195,0.00001977,-0.00002655,0.00000604,0.00001080,0.00001232,
 0.00000752,-0.00000453,0.00001606,-0.00000855,0.00000075,-0.00000245,-
 0.00000372,0.00000141,-0.00000335,-0.00000030,-0.00000337,-0.00000087,
 -0.00000200,0.00000267,-0.00000206,0.00000218,-0.00000196,-0.00000107,
 -0.00000033,0.00074436,0.00049433,-0.00009496,-0.00246405,0.00281490,-
 0.00052629,-0.00149894,0.00306962,0.00025563,0.00014707,-0.00021812,-0
 .00005030,0.00026409,0.00013106,-0.00003545,0.00887871,0.02322369,0.00
 458681,-0.00611114,-0.00321134,0.00264921,-0.12864544,-0.11836227,-0.0
 5232767,-0.01133365,-0.02411219,-0.01449671,0.13666631,-0.00000562,0.0
 0011153,-0.00000647,0.00008600,0.00018041,0.00003758,-0.00026496,-0.00
 012809,-0.00000875,-0.00007060,-0.00005500,-0.00001795,0.00024185,-0.0
 0005842,0.00002944,0.00002835,-0.00000193,-0.00000059,-0.00002637,-0.0
 0018179,-0.00003245,-0.00000565,-0.00000026,0.00001212,-0.00004841,0.0
 0009921,-0.00001866,-0.00000096,-0.00000796,-0.00000054,0.00000930,-0.
 00000364,0.00000083,-0.00000484,0.00000145,-0.00000108,0.00001386,-0.0
 0001070,0.00001309,-0.00000107,-0.00000537,-0.00000105,-0.00106009,-0.
 00061880,0.00000553,0.00520997,-0.00099004,0.00035328,0.00082964,-0.00
 025608,-0.00000136,-0.00012370,0.00001214,-0.00000855,-0.00019821,-0.0
 0042386,-0.00005874,-0.01039664,-0.03334854,-0.00524496,0.00111905,0.0
 0198629,-0.00005476,-0.10785527,-0.19845365,-0.07616166,-0.00119920,0.
 00102107,-0.00039784,0.11485341,0.22797898,0.00000903,0.00002340,-0.00
 000667,0.00002089,0.00002193,0.00001318,0.00000803,0.00001461,-0.00002
 701,-0.00002117,-0.00002009,0.00006209,0.00002296,-0.00000624,-0.00004
 376,0.00000470,-0.00001368,0.00000381,-0.00001015,-0.00002361,-0.00000
 520,0.00000039,0.00000477,0.00000500,-0.00000754,0.00000983,0.00000105
 ,0.00000059,-0.00000618,0.00000719,0.00000028,-0.00000136,0.00000082,-
 0.00000152,0.00000008,-0.00000166,0.00000122,-0.00000042,0.00000057,-0
 .00000034,-0.00000106,-0.00000049,0.00037635,0.00007715,0.00007514,-0.
 00065503,0.00275830,0.00049829,0.00022824,-0.00010208,-0.00033809,-0.0
 0000315,0.00013156,-0.00002210,0.00004215,0.00014033,0.00000527,0.0033
 2297,0.01162305,0.00369804,0.00345167,0.00117567,0.00080841,-0.0538394
 8,-0.08241811,-0.09204203,0.00789493,0.01143353,0.00463371,0.05847929,
 0.08060102,0.09191608,0.00007841,-0.00013992,-0.00001547,-0.00019553,-
 0.00022910,-0.00004734,0.00027815,-0.00002294,-0.00001776,0.00017173,-
 0.00009663,-0.00010635,-0.00021872,0.00007179,0.00008904,-0.00005163,0
 .00011191,0.00000137,0.00008748,0.00033146,0.00006365,-0.00002047,-0.0
 0004260,-0.00004252,0.00008312,-0.00014057,0.00002807,-0.00000170,0.00
 001609,-0.00002159,-0.00001025,0.00001140,0.00000011,0.00001246,0.0000
 0126,0.00000911,-0.00002294,0.00001226,-0.00001839,0.00000267,0.000013
 87,0.00000121,-0.00010071,0.00032345,0.00004128,-0.00148262,-0.0030858
 4,-0.00008799,0.00023212,-0.00028127,0.00005323,0.00006724,0.00009973,
 -0.00005855,0.00023720,0.00025234,0.00009751,-0.00415089,0.01337787,-0
 .01945764,0.00289209,0.00166924,-0.00201840,-0.05045338,-0.00492343,-0
 .00839386,-0.00214931,-0.00122514,0.03746438,0.00137502,-0.00028306,-0
 .01777972,0.05759238,-0.00011957,0.00002833,0.00001035,0.00027675,0.00
 003378,0.00003861,-0.00039688,0.00021637,0.00014059,-0.00015636,0.0001
 2017,0.00005734,0.00004706,0.00002493,-0.00005470,0.00003593,-0.000114
 59,-0.00000541,-0.00009643,-0.00019587,-0.00003493,0.00002902,0.000047
 33,0.00002993,-0.00004747,0.00007248,-0.00002261,0.00000633,-0.0000180
 0,0.00000886,0.00000360,-0.00000950,-0.00000088,-0.00000865,-0.0000029
 0,-0.00000766,0.00001233,-0.00000330,0.00000929,-0.00000206,-0.0000107
 4,-0.00000041,0.00036401,-0.00106111,-0.00043777,0.00225072,0.00542325
 ,0.00223299,0.00053791,-0.00105800,0.00016205,-0.00018800,-0.00019124,
 -0.00006188,-0.00017479,-0.00004817,-0.00022462,0.01081136,-0.01721702
 ,0.03240570,0.00058698,0.00182639,0.00103590,-0.00604248,-0.05138944,0
 .00120449,-0.00240896,0.00155188,-0.00026719,-0.00024393,0.00306673,-0
 .02495167,-0.00496880,0.05803418,0.00010624,-0.00010868,0.00000485,-0.
 00021584,-0.00018635,-0.00005135,0.00021736,-0.00001162,0.00002558,0.0
 0008575,-0.00006339,-0.00002569,-0.00016245,0.00001593,0.00004816,-0.0
 0004435,0.00009509,0.00000845,0.00009844,0.00028780,0.00006625,-0.0000
 1929,-0.00004097,-0.00003932,0.00007254,-0.00011788,0.00001134,0.00000
 182,0.00000827,-0.00001594,-0.00000763,0.00000931,-0.00000049,0.000009
 48,0.00000157,0.00000983,-0.00001834,0.00000921,-0.00001301,0.00000218
 ,0.00001306,0.00000056,0.00011534,0.00034618,0.00000273,-0.00056433,-0
 .00158269,-0.00010348,0.00012990,0.00086377,-0.00037750,0.00004205,0.0
 0029854,0.00005702,0.00028628,0.00012738,0.00000295,-0.00533855,0.0077
 8974,-0.00305905,-0.00132128,-0.00011955,0.00230520,-0.00617762,0.0058
 9790,-0.30506164,-0.00047374,-0.00178448,-0.01454065,0.00109916,0.0004
 5755,-0.01002119,0.00939096,-0.01166560,0.32973377,-0.00003039,0.00007
 492,-0.00000207,0.00005054,0.00007510,0.00002304,-0.00007612,-0.000039
 96,-0.00001122,-0.00002149,0.00000837,0.00001022,0.00010163,-0.0000301
 1,-0.00001754,0.00003386,-0.00005691,-0.00000165,0.00001566,-0.0001436
 6,-0.00002123,0.00000745,0.00001530,0.00002239,-0.00003818,0.00008598,
 -0.00001676,0.00000110,-0.00000799,0.00000708,0.00000848,-0.00000581,0
 .00000027,-0.00000733,0.00000019,-0.00000450,0.00001245,-0.00000861,0.
 00000950,-0.00000337,-0.00000484,-0.00000152,0.00009292,-0.00006078,-0
 .00006161,0.00020174,0.00024954,0.00014307,-0.00145839,0.00285359,0.00
 024983,-0.00008584,-0.00037050,0.00010847,0.00024192,-0.00024721,0.000
 08081,0.00294012,-0.00138055,-0.00210376,-0.00312594,-0.00996900,-0.01
 976295,-0.00228968,-0.00393178,0.03730747,-0.05108166,0.00594242,-0.00
 893612,0.00131118,0.00003302,-0.00101045,-0.00559177,0.00050587,0.0019
 0910,0.05745153,0.00001334,0.00000864,0.00000902,0.00001119,-0.0000160
 4,-0.00002276,-0.00002944,-0.00004696,0.00002191,0.00003869,-0.0000115
 8,-0.00000292,0.00005057,-0.00001525,0.00000281,-0.00000080,0.00002168
 ,0.00000157,0.00002147,0.00000231,0.00000063,-0.00000747,-0.00001094,-
 0.00000065,0.00000224,0.00001177,-0.00000426,-0.00000163,0.00000238,0.
 00000068,0.00000235,0.00000126,0.00000008,0.00000021,0.00000033,0.0000
 0087,0.00000123,-0.00000287,0.00000155,-0.00000086,0.00000145,0.000000
 07,0.00017378,-0.00022103,0.00004833,-0.00052936,-0.00090145,-0.000229
 41,-0.00232998,0.00559991,-0.00168479,-0.00008174,-0.00116518,0.000432
 10,0.00010266,-0.00001483,0.00026624,-0.00035805,0.00185569,-0.0012191
 1,-0.00946092,-0.01194432,-0.03428256,0.00229923,0.00089470,0.00397840
 ,0.00666957,-0.05475598,0.03170308,0.00055549,-0.00000447,-0.00003638,
 -0.00102988,0.00088511,-0.00035486,0.00363006,0.06015015,-0.00001780,0
 .00004347,0.00000112,0.00005263,0.00000505,0.00000254,-0.00011259,-0.0
 0003152,-0.00002657,0.00000753,0.00001627,-0.00002111,0.00008503,-0.00
 002234,0.00003526,0.00001874,-0.00001829,0.00000179,0.00002443,-0.0000
 7722,0.00000335,0.00000020,-0.00000215,0.00000310,-0.00001972,0.000062
 96,-0.00002485,0.00000135,-0.00000265,-0.00000758,0.00000718,-0.000002
 99,0.00000009,-0.00000451,0.00000087,0.00000135,0.00000911,-0.00000764
 ,0.00000985,-0.00000200,-0.00000108,-0.00000166,0.00012185,-0.00036911
 ,0.00003076,0.00011969,-0.00101017,-0.00052076,-0.00100993,0.00249990,
 -0.00008255,0.00010808,-0.00057066,0.00005608,0.00031776,-0.00013969,0
 .00001445,-0.00135713,0.00002741,0.00212532,-0.00641317,-0.00921032,-0
 .00876034,-0.00030251,0.00387152,-0.01405118,-0.00611227,0.02739130,-0
 .30018084,0.00084432,0.00016514,0.00038381,0.00178458,0.00044998,0.000
 72140,0.01076305,-0.02401737,0.32698955,0.00003508,-0.00005217,0.00001
 414,-0.00013003,-0.00011185,-0.00003054,0.00009461,-0.00011678,0.00005
 308,0.00010829,-0.00010050,0.00000534,0.00002410,0.00001915,0.00000156
 ,-0.00003134,0.00012583,0.00000869,0.00007371,0.00015453,0.00002644,-0
 .00002938,-0.00004698,-0.00002478,0.00004556,-0.00005234,0.00001029,-0
 .00001049,0.00002138,0.00000090,-0.00000063,0.00000991,0.00000036,0.00
 000848,0.00000238,0.00000718,-0.00001024,0.00000356,-0.00000764,0.0000
 0141,0.00000931,0.00000027,0.00004323,0.00014740,-0.00008951,-0.001282
 36,-0.00307479,-0.00012096,-0.00207727,-0.00292158,-0.00093933,0.00074
 976,-0.00043866,-0.00009990,0.00021489,-0.00006961,-0.00002916,-0.0062
 0698,0.00271123,0.00301039,0.00943682,-0.02179991,0.00144190,-0.012516
 88,0.02521586,-0.01101409,-0.13741307,0.12678245,-0.03803566,0.0005257
 7,-0.00085747,-0.00054563,0.00132906,-0.00058281,0.00074769,0.00128736
 ,0.00019534,0.00103952,0.14572128,-0.00003005,0.00006935,-0.00000574,0
 .00003360,0.00006078,0.00002184,-0.00004465,-0.00010127,0.00001257,0.0
 0002769,-0.00003817,-0.00000058,0.00010930,-0.00001935,0.00001012,0.00
 003049,-0.00003325,-0.00000170,0.00003979,-0.00013714,-0.00001543,0.00
 000248,0.00000423,0.00001728,-0.00002938,0.00008860,-0.00001807,-0.000
 00049,-0.00000067,0.00000081,0.00000990,-0.00000414,0.00000037,-0.0000
 0580,0.00000125,-0.00000299,0.00001138,-0.00000947,0.00000933,-0.00000
 335,-0.00000364,-0.00000136,0.00009583,0.00004981,-0.00002173,-0.00086
 577,-0.00045896,0.00006761,-0.00503030,-0.00087685,-0.00063996,0.00101
 914,-0.00061516,-0.00007828,0.00017768,-0.00037289,0.00000963,-0.00201
 047,0.00223663,0.00028259,0.01140463,-0.03215271,0.00051561,-0.0003903
 2,0.00338490,-0.00025877,0.11677275,-0.20813258,0.05751401,0.00094212,
 0.00013703,-0.00042131,0.00017390,0.00002016,-0.00020693,0.00275217,-0
 .00039824,0.00091665,-0.12517942,0.23733695,0.00001570,-0.00000517,-0.
 00000242,-0.00001397,-0.00002118,0.00000068,-0.00002247,0.00002111,-0.
 00001591,-0.00001992,0.00004096,-0.00000741,-0.00000343,-0.00000883,0.
 00000444,-0.00000360,0.00000279,-0.00000174,0.00002147,0.00000712,0.00
 000754,0.00000050,-0.00000662,0.00000244,0.00000663,-0.00000092,-0.000
 00280,0.00000384,-0.00000528,-0.00000002,0.00000038,0.00000036,-0.0000
 0093,0.00000026,0.00000008,0.00000008,0.00000014,-0.00000091,-0.000000
 47,-0.00000031,0.00000083,0.00000081,0.00003784,-0.00013889,-0.0000479
 6,0.00003477,0.00012593,-0.00019629,-0.00123351,-0.00303052,-0.0000218
 1,0.00052921,-0.00016211,0.00002047,0.00008484,-0.00015172,-0.00001758
 ,0.00338487,-0.00091771,0.00066501,0.00542660,-0.01631844,0.00228146,0
 .00844784,-0.01118399,0.00300815,-0.04124285,0.06352844,-0.07261884,-0
 .00044434,0.00035022,0.00040699,-0.00098182,-0.00004849,0.00034976,-0.
 01858381,0.02562025,-0.00664676,0.04458853,-0.05768744,0.07281431,0.00
 002561,0.00007758,-0.00002916,0.00018140,0.00022906,0.00006714,-0.0001
 2429,-0.00061164,-0.00027887,-0.00010049,0.00004284,-0.00005374,0.0000
 7108,-0.00012419,0.00000048,-0.00001256,0.00001638,0.00000517,-0.00025
 078,0.00000432,-0.00005227,-0.00001127,0.00003030,-0.00001760,-0.00005
 091,-0.00005009,0.00002100,-0.00001792,0.00001789,0.00002673,-0.000010
 50,-0.00000047,0.00000384,0.00000111,-0.00000162,0.00000135,-0.0000017
 1,0.00000634,0.00000179,0.00000074,-0.00000096,0.00000059,0.00007528,0
 .00255187,0.00049354,0.00088560,-0.00100500,-0.00077053,-0.00185608,0.
 00497197,-0.00015496,-0.34283163,-0.08340985,-0.03927576,-0.00641023,-
 0.00644746,-0.00098582,-0.00030005,-0.00022670,-0.00005829,0.00005959,
 0.00001958,0.00022240,-0.00007597,0.00024122,-0.00008712,-0.00005787,-
 0.00037822,0.00014339,0.00003586,-0.00002232,0.00001050,0.00001079,-0.
 00003069,0.00002913,0.00005220,0.00006274,0.00004659,0.00000924,-0.000
 01285,-0.00003338,0.35070377,-0.00005090,-0.00002362,-0.00000642,-0.00
 028407,-0.00016452,-0.00002228,0.00021185,0.00131023,-0.00004645,0.000
 39044,-0.00012622,0.00000613,0.00000560,0.00019980,0.00001995,0.000026
 47,-0.00006139,-0.00000430,0.00030414,-0.00011937,0.00005463,0.0000304
 9,-0.00003178,0.00003296,0.00006201,0.00013777,-0.00003293,0.00001791,
 -0.00004920,0.00001261,0.00002138,-0.00000069,-0.00000527,-0.00000799,
 0.00000237,-0.00000265,0.00001609,-0.00001797,0.00000831,-0.00000245,-
 0.00000797,-0.00000616,0.00313360,-0.00462202,0.00008415,-0.00046986,-
 0.00467358,-0.00070038,-0.02672617,0.00226439,-0.00309381,-0.07821913,
 -0.07237293,-0.01120692,0.01763944,0.00566533,0.00230750,-0.00153327,-
 0.00002142,-0.00007084,0.00110148,0.00252567,0.00056536,-0.00005187,0.
 00064086,-0.00008841,0.00020931,0.00005130,0.00004931,0.00008520,-0.00
 004622,-0.00001305,0.00000262,-0.00003122,0.00002172,0.00003116,0.0000
 7377,0.00003269,0.00000655,-0.00003520,-0.00000987,0.08404996,0.069533
 84,-0.00000465,-0.00003548,0.00024374,-0.00000062,-0.00001546,-0.00030
 902,-0.00018828,-0.00009944,0.00231832,-0.00006008,-0.00009001,0.00045
 436,-0.00000457,0.00002243,-0.00004340,-0.00001152,0.00001397,-0.00001
 659,0.00006853,0.00002808,-0.00000161,-0.00000111,-0.00000920,0.000011
 54,0.00001002,-0.00001103,-0.00000307,0.00002653,0.00001273,-0.0002522
 0,0.00000096,0.00000079,-0.00000002,0.00000703,0.00000065,-0.00000760,
 -0.00002143,0.00000870,-0.00001582,-0.00000373,-0.00000060,0.00000719,
 0.00050418,0.00005448,-0.00275289,-0.00073849,-0.00087329,0.00623274,-
 0.00237146,0.00110541,0.00365128,-0.03929661,-0.01241206,-0.02500987,0
 .00084769,-0.00013078,-0.00149994,-0.00027105,-0.00009868,0.00027534,0
 .00069249,0.00085448,-0.00399885,0.00007501,0.00018547,0.00021638,0.00
 005628,-0.00036236,-0.00059448,0.00005631,-0.00001037,-0.00001123,0.00
 002290,-0.00000223,-0.00003854,-0.00009910,-0.00023252,-0.00005561,-0.
 00001908,-0.00001813,0.00001880,0.04072385,0.01211444,0.02118107\\-0.0
 0002321,-0.00001148,0.00001390,0.00001493,-0.00002467,-0.00002621,-0.0
 0002409,0.00000270,-0.00001286,-0.00000513,0.00002001,0.00001483,0.000
 02225,-0.00000198,-0.00001418,0.00001249,0.00000828,0.00001986,-0.0000
 0811,0.00002276,0.00002236,-0.00001005,-0.00001353,-0.00000847,0.00001
 053,-0.00000856,-0.00000721,-0.00000288,0.00000451,-0.00000524,0.00000
 057,0.00000020,-0.00000098,-0.00000173,0.00000337,0.00000216,-0.000000
 54,0.00000189,-0.00000327,-0.00000115,-0.00000162,-0.00000276,0.000031
 69,-0.00002196,-0.00000050,-0.00001608,0.00002279,0.00000405,0.0000110
 3,0.00002273,-0.00000060,-0.00002013,0.00000115,-0.00000005,0.00000684
 ,-0.00001618,0.00000567,-0.00000077,-0.00000031,0.00000129,0.00000184,
 -0.00000767,-0.00000189,0.00000089,-0.00000588,-0.00001218,-0.00000031
 ,-0.00000864,0.00001270,0.00000069,0.00000780,0.00000346,-0.00000047,-
 0.00000174,0.00000573,-0.00000108,0.00000087,-0.00000764,-0.00000009,0
 .00000797,-0.00000409,0.00000207,-0.00000279,0.00000211\\\@


 IN THE UNIVERSE THE DIFFICULT THINGS ARE DONE AS IF THEY WERE EASY.

                                                          -- LAO-TSU
 Job cpu time:       0 days  0 hours 52 minutes 18.0 seconds.
 Elapsed time:       0 days  0 hours  6 minutes 43.5 seconds.
 File lengths (MBytes):  RWF=    373 Int=      0 D2E=      0 Chk=      8 Scr=      1
 Normal termination of Gaussian 16 at Fri Sep 29 16:46:50 2023.
