 Entering Gaussian System, Link 0=g16
 Input=step2.gjf
 Output=step2.log
 Initial command:
 /apps/gaussian/g16-c01-avx2/g16/l1.exe "/rds/general/ephemeral/user/ns5018/ephemeral/0012/012/Gau-3040303.inp" -scrdir="/rds/general/ephemeral/user/ns5018/ephemeral/0012/012/"
 Entering Link 1 = /apps/gaussian/g16-c01-avx2/g16/l1.exe PID=   3040304.
  
 Copyright (c) 1988-2019, Gaussian, Inc.  All Rights Reserved.
  
 This is part of the Gaussian(R) 16 program.  It is based on
 the Gaussian(R) 09 system (copyright 2009, Gaussian, Inc.),
 the Gaussian(R) 03 system (copyright 2003, Gaussian, Inc.),
 the Gaussian(R) 98 system (copyright 1998, Gaussian, Inc.),
 the Gaussian(R) 94 system (copyright 1995, Gaussian, Inc.),
 the Gaussian 92(TM) system (copyright 1992, Gaussian, Inc.),
 the Gaussian 90(TM) system (copyright 1990, Gaussian, Inc.),
 the Gaussian 88(TM) system (copyright 1988, Gaussian, Inc.),
 the Gaussian 86(TM) system (copyright 1986, Carnegie Mellon
 University), and the Gaussian 82(TM) system (copyright 1983,
 Carnegie Mellon University). Gaussian is a federally registered
 trademark of Gaussian, Inc.
  
 This software contains proprietary and confidential information,
 including trade secrets, belonging to Gaussian, Inc.
  
 This software is provided under written license and may be
 used, copied, transmitted, or stored only in accord with that
 written license.
  
 The following legend is applicable only to US Government
 contracts under FAR:
  
                    RESTRICTED RIGHTS LEGEND
  
 Use, reproduction and disclosure by the US Government is
 subject to restrictions as set forth in subparagraphs (a)
 and (c) of the Commercial Computer Software - Restricted
 Rights clause in FAR 52.227-19.
  
 Gaussian, Inc.
 340 Quinnipiac St., Bldg. 40, Wallingford CT 06492
  
  
 ---------------------------------------------------------------
 Warning -- This program may not be used in any manner that
 competes with the business of Gaussian, Inc. or will provide
 assistance to any competitor of Gaussian, Inc.  The licensee
 of this program is prohibited from giving any competitor of
 Gaussian, Inc. access to this program.  By using this program,
 the user acknowledges that Gaussian, Inc. is engaged in the
 business of creating and licensing software in the field of
 computational chemistry and represents and warrants to the
 licensee that it is not a competitor of Gaussian, Inc. and that
 it will not use this program in any manner prohibited above.
 ---------------------------------------------------------------
  

 Cite this work as:
 Gaussian 16, Revision C.01,
 M. J. Frisch, G. W. Trucks, H. B. Schlegel, G. E. Scuseria, 
 M. A. Robb, J. R. Cheeseman, G. Scalmani, V. Barone, 
 G. A. Petersson, H. Nakatsuji, X. Li, M. Caricato, A. V. Marenich, 
 J. Bloino, B. G. Janesko, R. Gomperts, B. Mennucci, H. P. Hratchian, 
 J. V. Ortiz, A. F. Izmaylov, J. L. Sonnenberg, D. Williams-Young, 
 F. Ding, F. Lipparini, F. Egidi, J. Goings, B. Peng, A. Petrone, 
 T. Henderson, D. Ranasinghe, V. G. Zakrzewski, J. Gao, N. Rega, 
 G. Zheng, W. Liang, M. Hada, M. Ehara, K. Toyota, R. Fukuda, 
 J. Hasegawa, M. Ishida, T. Nakajima, Y. Honda, O. Kitao, H. Nakai, 
 T. Vreven, K. Throssell, J. A. Montgomery, Jr., J. E. Peralta, 
 F. Ogliaro, M. J. Bearpark, J. J. Heyd, E. N. Brothers, K. N. Kudin, 
 V. N. Staroverov, T. A. Keith, R. Kobayashi, J. Normand, 
 K. Raghavachari, A. P. Rendell, J. C. Burant, S. S. Iyengar, 
 J. Tomasi, M. Cossi, J. M. Millam, M. Klene, C. Adamo, R. Cammi, 
 J. W. Ochterski, R. L. Martin, K. Morokuma, O. Farkas, 
 J. B. Foresman, and D. J. Fox, Gaussian, Inc., Wallingford CT, 2019.
 
 ******************************************
 Gaussian 16:  ES64L-G16RevC.01  3-Jul-2019
                13-Apr-2024 
 ******************************************
 %mem=210GB
 %nprocshared=32
 Will use up to   32 processors via shared memory.
 %Chk=checkpoint.chk
 ----------------------------------------------------
 #p wB97XD/6-311(d,p) Geom=AllCheck guess=read stable
 ----------------------------------------------------
 1/29=7,38=1,172=1/1;
 2/12=2,40=1/2;
 3/5=4,6=6,7=101,11=2,14=-4,25=1,30=1,74=-58,116=-2/1,2,3;
 4/5=1/1;
 5/5=2,38=6/2;
 8/6=1,10=90,11=11/1;
 9/8=-1,42=1/14;
 6/7=2,8=2,9=2,10=2,28=1/1;
 99/5=1,9=1/99;
 Leave Link    1 at Sat Apr 13 07:21:48 2024, MaxMem= 28185722880 cpu:               9.6 elap:               0.3
 (Enter /apps/gaussian/g16-c01-avx2/g16/l101.exe)
 Structure from the checkpoint file:  "checkpoint.chk"
 ---
 011
 ---
 Charge = -6 Multiplicity = 5
 Redundant internal coordinates found in file.  (old form).
 C,0,41.8427506558,2.2939685793,0.0012270188
 H,0,41.1450290498,3.1227426567,0.0012037683
 C,0,43.2015031534,2.4983044777,0.0012655405
 H,0,43.6188153631,3.4980573699,0.001273238
 C,0,44.0984931138,1.4106094345,0.0012922204
 C,0,45.5210882284,1.6749177763,0.0013258441
 O,0,46.0545962073,2.7782198214,0.0013342875
 N,0,46.3210431552,0.5132756741,0.0013408258
 C,0,45.8625423024,-0.8050140081,0.0013348531
 N,0,46.8456027367,-1.6877575531,0.0013450224
 C,0,44.4559640587,-1.0441491453,0.0013067239
 C,0,43.9239418719,-2.3493001883,0.0012936137
 H,0,44.6142046551,-3.1843391521,0.0013104837
 C,0,42.563680275,-2.5440528004,0.0012563213
 H,0,42.1369859327,-3.5399002933,0.0012399791
 C,0,41.6777129777,-1.4542179537,0.0012276615
 C,0,39.9016915424,0.7462857596,0.0011647876
 N,0,38.9404289005,1.6275670973,0.0011245138
 C,0,37.763020411,0.893216406,0.0010783072
 C,0,36.4532530328,1.3711008338,0.0010101369
 H,0,36.2171312217,2.4241345192,0.0009842362
 C,0,35.4707628422,0.3952521189,0.0009626967
 C,0,35.7456719645,-0.9991513355,0.0009859138
 C,0,37.0571599186,-1.4744235727,0.0010547075
 H,0,37.2883009785,-2.5284955364,0.0010669269
 C,0,38.0391067314,-0.4961081669,0.0010958667
 N,0,39.4366925132,-0.5738415993,0.0011464567
 C,0,40.2383935075,-1.7203233749,0.0011704048
 O,0,39.7419571694,-2.8342790815,0.0011845295
 C,0,41.3199307809,0.9902577487,0.001213289
 C,0,42.1835192022,-0.1284035374,0.0012429207
 C,0,43.5977714253,0.0818863862,0.0012830308
 C,0,29.6039162584,2.2801420466,0.0007198256
 H,0,28.9135064308,3.1151022039,0.0006980814
 C,0,30.9643984285,2.4733822035,0.0007588239
 H,0,31.3899150394,3.4698076514,0.0007642188
 C,0,31.8531685984,1.3803740384,0.0007774725
 C,0,33.2824502703,1.6361459959,0.0007836065
 O,0,33.8105095244,2.7400257558,0.0009350275
 N,0,34.0780294142,0.4744314125,0.0008682214
 C,0,33.6090730584,-0.8412033444,0.00086708
 N,0,34.5759978076,-1.7307059581,0.0009281753
 C,0,32.1954088075,-1.0723998854,0.0008020675
 C,0,31.658050823,-2.3735292333,0.0007911659
 H,0,32.3458607214,-3.210693335,0.0008223692
 C,0,30.2967535045,-2.5634255783,0.0007402422
 H,0,29.8670690122,-3.5580122009,0.0007252846
 C,0,29.4136793237,-1.4692570129,0.0007033008
 C,0,27.6518168261,0.7449923593,0.0006526289
 N,0,26.6910370619,1.6320025748,0.000633708
 C,0,25.5128609051,0.903070349,0.0005928942
 C,0,24.2046058156,1.3848614269,0.0005482386
 H,0,23.9729038431,2.4388532004,0.000536919
 C,0,23.2162904882,0.4123667506,0.0005134324
 C,0,23.4882616303,-0.9814793204,0.0005245157
 C,0,24.7985362122,-1.4625731514,0.0005684642
 H,0,25.0273421511,-2.5172323572,0.0005721289
 C,0,25.7841965369,-0.4896001198,0.0005997555
 N,0,27.1807561162,-0.5726238333,0.0006350881
 C,0,27.9763409194,-1.7262724756,0.000637411
 O,0,27.4655826205,-2.8357829543,0.0006811359
 C,0,29.0693650068,0.9793220778,0.0006957817
 C,0,29.9259000537,-0.1459306891,0.0007214037
 C,0,31.3423423485,0.0559148803,0.0007675428
 C,0,17.3483564647,2.321074813,0.0003002853
 H,0,16.6677708575,3.1633915922,0.0002700745
 C,0,18.7036526186,2.4970963901,0.0003493696
 H,0,19.1333271047,3.4926840622,0.0003578266
 C,0,19.6017985046,1.4055820546,0.0003780488
 C,0,21.0233267045,1.6621333564,0.0004079753
 O,0,21.5586433195,2.7626665496,0.0004845048
 N,0,21.8236692332,0.4950181487,0.0004545633
 C,0,21.3540226571,-0.8167780756,0.0004415568
 N,0,22.3136476637,-1.7088877324,0.0004813598
 C,0,19.9330618408,-1.0474227976,0.0003904223
 C,0,19.4000154083,-2.3415955342,0.0003729975
 H,0,20.0904787173,-3.1771576343,0.0003977434
 C,0,18.0364107405,-2.5373540476,0.0003267893
 H,0,17.605094108,-3.5305964915,0.0003146608
 C,0,17.1627545707,-1.4391683102,0.0002983053
 C,0,15.4163006015,0.7698726551,0.00021863
 N,0,14.4089526961,1.6551929553,0.0001563715
 C,0,13.2740262526,0.9443735637,0.0001015387
 C,0,11.9396488435,1.4251896698,0.0000212357
 H,0,11.70990126,2.4793503569,-0.0000030042
 C,0,10.9710399161,0.459159271,-0.0000311958
 C,0,11.2372658183,-0.957680731,-0.0000073885
 C,0,12.5716421385,-1.4384982074,0.0000733022
 H,0,12.8013901636,-2.4926587562,0.0000950652
 C,0,13.5402523841,-0.4724685993,0.0001225875
 N,0,14.9351882317,-0.5506878957,0.0002046491
 C,0,15.7163765477,-1.6984319,0.0002559292
 O,0,15.2107265866,-2.8119902227,0.000199979
 C,0,16.7929571296,1.0130350913,0.0002812747
 C,0,17.6693167265,-0.1225557318,0.0003152887
 C,0,19.0838050398,0.0832999231,0.0003624789
 C,0,5.1112742601,2.3282892198,-0.0004504362
 H,0,4.4208149171,3.1638548603,-0.0005256535
 C,0,6.4748835148,2.5240451159,-0.0003479897
 H,0,6.9062006213,3.5172876673,-0.000335288
 C,0,7.348533437,1.4258613736,-0.000276189
 C,0,8.7949173552,1.6851222589,-0.000192873
 O,0,9.3005622764,2.7986812127,-0.0001379731
 N,0,9.5761027603,0.5373803267,-0.0001280651
 C,0,9.0949899988,-0.783183427,-0.0001501117
 N,0,10.102334148,-1.6684992469,-0.0000649893
 C,0,7.7183275803,-1.0263444248,-0.0002374203
 C,0,7.162926347,-2.3343792502,-0.0002654897
 H,0,7.8435084732,-3.1766994925,-0.0002140195
 C,0,5.8076257312,-2.5103985266,-0.0003450659
 H,0,5.3779512282,-3.5059863191,-0.0003511904
 C,0,4.9094852127,-1.4188854839,-0.0003990828
 C,0,3.1572624855,0.8034793931,-0.0006206348
 N,0,2.1976430667,1.6955902551,-0.0007788342
 N,0,2.6876128108,-0.50831711,-0.0006219903
 C,0,3.4879512856,-1.675432124,-0.0004430597
 O,0,2.9526366015,-2.7759643727,-0.0006837453
 C,0,4.5782271011,1.0341217947,-0.0004700173
 C,0,5.4274823774,-0.0966043477,-0.0003870863
 C,0,6.8419688665,0.1092478375,-0.0002979174
 C,0,47.9955537599,-0.9387475056,0.0013623414
 C,0,49.3289783679,-1.3594575641,0.0013761443
 C,0,50.3251792956,-0.3957358238,0.0013909223
 C,0,50.0179040387,0.9723604625,0.001394137
 C,0,48.7004974166,1.4155983858,0.0013818207
 C,0,47.7088721965,0.4432224317,0.0013646342
 H,0,49.5581703925,-2.4191245634,0.001373271
 H,0,51.3663201091,-0.7047861254,0.0014003449
 H,0,50.8224593631,1.700534377,0.0014050852
 H,0,48.4339918474,2.4627298965,0.0013826998
 C,0,1.2949903216,-0.4256604551,-0.0008430865
 C,0,0.3066706741,-1.3981505696,-0.0009577541
 C,0,1.0230240677,0.9681857802,-0.0009274938
 C,0,-1.0015827164,-0.9163533665,-0.0011759711
 C,0,-0.2872467242,1.4492870634,-0.0011433959
 H,0,0.5383648019,-2.4521441903,-0.0008828019
 C,0,-1.2729117461,0.4763185012,-0.0012638201
 N,0,-2.1797618067,-1.6452794187,-0.0013321331
 C,0,-3.1405376972,-0.7582637393,-0.0015089042
 C,0,-5.0926464977,-2.2934013916,-0.0017384381
 N,0,-2.6694703316,0.5593486246,-0.0014921526
 C,0,-4.558087568,-0.992584953,-0.0017061789
 C,0,-3.4650485763,1.7130040976,-0.0016724181
 C,0,-6.4531304863,-2.4866327665,-0.001916948
 C,0,-5.4146145957,0.1326738031,-0.0018541258
 O,0,-2.9542799171,2.8225097805,-0.0015409181
 H,0,-0.5160475657,2.5039474608,-0.0012175418
 C,0,-4.9023866269,1.4559974536,-0.0018268812
 H,0,-4.4022418108,-3.1283659149,-0.0016178552
 C,0,-7.3418923643,-1.3936194108,-0.0020665247
 C,0,-6.8310586596,-0.0691633265,-0.0020339271
 C,0,-5.7854550081,2.5501710854,-0.0019662335
 C,0,-8.7711774708,-1.6493825082,-0.0022511725
 O,0,-9.2992414889,-2.7532592707,-0.0022860478
 H,0,-6.8786531327,-3.4830557066,-0.0019451522
 C,0,-7.6841184853,1.0591565471,-0.0021753677
 C,0,-7.1467529194,2.3602827408,-0.0021370977
 C,0,-9.0977844188,0.8279688655,-0.0023573278
 N,0,-9.5667487933,-0.4876640461,-0.0023860129
 C,0,-10.959481872,-0.4084757872,-0.0025759722
 C,0,-11.9419790968,-1.3843169369,-0.0026827136
 H,0,-5.3557648518,3.5447552224,-0.0019435368
 N,0,-10.0647028645,1.7174770302,-0.0025146073
 C,0,-11.2343826909,0.9859289501,-0.0026539435
 C,0,-13.2517434949,-0.9064233995,-0.0028794776
 C,0,-12.5458662701,1.4612112635,-0.0028508107
 H,0,-7.8345586941,3.1974501265,-0.0022510919
 H,0,-11.7058669031,-2.4373529534,-0.0026201971
 C,0,-13.5278209135,0.4829027317,-0.0029597158
 N,0,-14.4291573632,-1.6407657867,-0.0030236584
 C,0,-15.3904146959,-0.7594766277,-0.0031852519
 C,0,-17.3314842228,-2.3071465798,-0.0034061605
 N,0,-14.9254051276,0.5606443325,-0.0031636394
 C,0,-16.8086559034,-1.0034392826,-0.0033744344
 C,0,-15.7270995962,1.7071336115,-0.0033190523
 C,0,-18.6902377317,-2.5114741285,-0.0035858749
 C,0,-17.6722379332,0.1152274525,-0.0035245287
 O,0,-15.2306511704,2.8210834942,-0.0032502287
 H,0,-12.7769988004,2.5152850492,-0.0029164325
 C,0,-17.1664197574,1.4410382094,-0.0034950934
 H,0,-16.6337672932,-3.1359247637,-0.0032861936
 C,0,-19.5872232723,-1.4237757254,-0.003740741
 C,0,-19.0864914934,-0.0950531672,-0.0037088568
 C,0,-18.0523796076,2.5308791057,-0.00364204
 C,0,-21.0098188881,-1.6880732245,-0.0039346744
 O,0,-21.5433489343,-2.7913657068,-0.003945465
 H,0,-19.1075554727,-3.5112246866,-0.0036154112
 C,0,-19.9446750967,1.030987783,-0.0038536507
 C,0,-19.4126427089,2.3361343386,-0.0038168213
 C,0,-21.3512576948,0.7918680473,-0.004030982
 N,0,-21.8097647402,-0.5264247661,-0.0040601914
 C,0,-23.1975890621,-0.4563515153,-0.00423778
 C,0,-24.1892317522,-1.4287291886,-0.004342163
 H,0,-17.625680942,3.5267247558,-0.0036143598
 N,0,-22.3343203509,1.6746173556,-0.0041789554
 C,0,-23.4842693291,0.925592997,-0.0043067259
 C,0,-25.5066183272,-0.9855067522,-0.0045205738
 C,0,-24.8177111187,1.3463167449,-0.0044871422
 H,0,-20.10289731,3.1711802143,-0.0039309622
 H,0,-23.9227042197,-2.4758595204,-0.0042843511
 C,0,-25.81390208,0.3826007364,-0.0045918621
 H,0,-25.0468456969,2.4059962787,-0.0045415367
 H,0,-26.3111684951,-1.7136182389,-0.0046073117
 H,0,-26.8550201486,0.691710352,-0.0047327879
 Recover connectivity data from disk.
 ITRead=  0  0  0  0  0  0  0  0  0  0  0  0  0  0  0  0  0  0  0  0
 ITRead=  0  0  0  0  0  0  0  0  0  0  0  0  0  0  0  0  0  0  0  0
 ITRead=  0  0  0  0  0  0  0  0  0  0  0  0  0  0  0  0  0  0  0  0
 ITRead=  0  0  0  0  0  0  0  0  0  0  0  0  0  0  0  0  0  0  0  0
 ITRead=  0  0  0  0  0  0  0  0  0  0  0  0  0  0  0  0  0  0  0  0
 ITRead=  0  0  0  0  0  0  0  0  0  0  0  0  0  0  0  0  0  0  0  0
 ITRead=  0  0  0  0  0  0  0  0  0  0  0  0  0  0  0  0  0  0  0  0
 ITRead=  0  0  0  0  0  0  0  0  0  0  0  0  0  0  0  0  0  0  0  0
 ITRead=  0  0  0  0  0  0  0  0  0  0  0  0  0  0  0  0  0  0  0  0
 ITRead=  0  0  0  0  0  0  0  0  0  0  0  0  0  0  0  0  0  0  0  0
 ITRead=  0  0  0  0
 MicOpt= -1 -1 -1 -1 -1 -1 -1 -1 -1 -1 -1 -1 -1 -1 -1 -1 -1 -1 -1 -1
 MicOpt= -1 -1 -1 -1 -1 -1 -1 -1 -1 -1 -1 -1 -1 -1 -1 -1 -1 -1 -1 -1
 MicOpt= -1 -1 -1 -1 -1 -1 -1 -1 -1 -1 -1 -1 -1 -1 -1 -1 -1 -1 -1 -1
 MicOpt= -1 -1 -1 -1 -1 -1 -1 -1 -1 -1 -1 -1 -1 -1 -1 -1 -1 -1 -1 -1
 MicOpt= -1 -1 -1 -1 -1 -1 -1 -1 -1 -1 -1 -1 -1 -1 -1 -1 -1 -1 -1 -1
 MicOpt= -1 -1 -1 -1 -1 -1 -1 -1 -1 -1 -1 -1 -1 -1 -1 -1 -1 -1 -1 -1
 MicOpt= -1 -1 -1 -1 -1 -1 -1 -1 -1 -1 -1 -1 -1 -1 -1 -1 -1 -1 -1 -1
 MicOpt= -1 -1 -1 -1 -1 -1 -1 -1 -1 -1 -1 -1 -1 -1 -1 -1 -1 -1 -1 -1
 MicOpt= -1 -1 -1 -1 -1 -1 -1 -1 -1 -1 -1 -1 -1 -1 -1 -1 -1 -1 -1 -1
 MicOpt= -1 -1 -1 -1 -1 -1 -1 -1 -1 -1 -1 -1 -1 -1 -1 -1 -1 -1 -1 -1
 MicOpt= -1 -1 -1 -1
                           ----------------------------
                           !    Current Parameters    !
                           ! (Angstroms and Degrees)  !
 --------------------------                            --------------------------
 ! Name  Definition              Value                                          !
 --------------------------------------------------------------------------------
 ! R1    R(1,2)                  1.0834                                         !
 ! R2    R(1,3)                  1.374                                          !
 ! R3    R(1,30)                 1.4046                                         !
 ! R4    R(3,4)                  1.0834                                         !
 ! R5    R(3,5)                  1.4098                                         !
 ! R6    R(5,6)                  1.4469                                         !
 ! R7    R(5,32)                 1.4199                                         !
 ! R8    R(6,7)                  1.2255                                         !
 ! R9    R(6,8)                  1.4104                                         !
 ! R10   R(8,9)                  1.3957                                         !
 ! R11   R(8,126)                1.3896                                         !
 ! R12   R(9,10)                 1.3212                                         !
 ! R13   R(9,11)                 1.4268                                         !
 ! R14   R(10,121)               1.3724                                         !
 ! R15   R(11,12)                1.4094                                         !
 ! R16   R(11,32)                1.4158                                         !
 ! R17   R(12,13)                1.0834                                         !
 ! R18   R(12,14)                1.3741                                         !
 ! R19   R(14,15)                1.0834                                         !
 ! R20   R(14,16)                1.4045                                         !
 ! R21   R(16,28)                1.4637                                         !
 ! R22   R(16,31)                1.419                                          !
 ! R23   R(17,18)                1.3041                                         !
 ! R24   R(17,27)                1.3996                                         !
 ! R25   R(17,30)                1.4391                                         !
 ! R26   R(18,19)                1.3876                                         !
 ! R27   R(19,20)                1.3942                                         !
 ! R28   R(19,26)                1.4165                                         !
 ! R29   R(20,21)                1.0792                                         !
 ! R30   R(20,22)                1.3848                                         !
 ! R31   R(22,23)                1.4212                                         !
 ! R32   R(22,40)                1.395                                          !
 ! R33   R(23,24)                1.3949                                         !
 ! R34   R(23,42)                1.3796                                         !
 ! R35   R(24,25)                1.0791                                         !
 ! R36   R(24,26)                1.3861                                         !
 ! R37   R(26,27)                1.3997                                         !
 ! R38   R(27,28)                1.399                                          !
 ! R39   R(28,29)                1.2196                                         !
 ! R40   R(30,31)                1.4132                                         !
 ! R41   R(31,32)                1.4298                                         !
 ! R42   R(33,34)                1.0834                                         !
 ! R43   R(33,35)                1.3741                                         !
 ! R44   R(33,62)                1.4064                                         !
 ! R45   R(35,36)                1.0835                                         !
 ! R46   R(35,37)                1.4088                                         !
 ! R47   R(37,38)                1.452                                          !
 ! R48   R(37,64)                1.4196                                         !
 ! R49   R(38,39)                1.2237                                         !
 ! R50   R(38,40)                1.408                                          !
 ! R51   R(40,41)                1.3967                                         !
 ! R52   R(41,42)                1.3138                                         !
 ! R53   R(41,43)                1.4324                                         !
 ! R54   R(43,44)                1.4077                                         !
 ! R55   R(43,64)                1.4145                                         !
 ! R56   R(44,45)                1.0835                                         !
 ! R57   R(44,46)                1.3745                                         !
 ! R58   R(46,47)                1.0834                                         !
 ! R59   R(46,48)                1.4061                                         !
 ! R60   R(48,60)                1.4601                                         !
 ! R61   R(48,63)                1.419                                          !
 ! R62   R(49,50)                1.3076                                         !
 ! R63   R(49,59)                1.3993                                         !
 ! R64   R(49,62)                1.4368                                         !
 ! R65   R(50,51)                1.3854                                         !
 ! R66   R(51,52)                1.3941                                         !
 ! R67   R(51,58)                1.4189                                         !
 ! R68   R(52,53)                1.0792                                         !
 ! R69   R(52,54)                1.3865                                         !
 ! R70   R(54,55)                1.4201                                         !
 ! R71   R(54,72)                1.3951                                         !
 ! R72   R(55,56)                1.3958                                         !
 ! R73   R(55,74)                1.3816                                         !
 ! R74   R(56,57)                1.0792                                         !
 ! R75   R(56,58)                1.385                                          !
 ! R76   R(58,59)                1.399                                          !
 ! R77   R(59,60)                1.4014                                         !
 ! R78   R(60,61)                1.2214                                         !
 ! R79   R(62,63)                1.4142                                         !
 ! R80   R(63,64)                1.4308                                         !
 ! R81   R(65,66)                1.0829                                         !
 ! R82   R(65,67)                1.3667                                         !
 ! R83   R(65,94)                1.4211                                         !
 ! R84   R(67,68)                1.0844                                         !
 ! R85   R(67,69)                1.4135                                         !
 ! R86   R(69,70)                1.4445                                         !
 ! R87   R(69,96)                1.4201                                         !
 ! R88   R(70,71)                1.2238                                         !
 ! R89   R(70,72)                1.4152                                         !
 ! R90   R(72,73)                1.3933                                         !
 ! R91   R(73,74)                1.3102                                         !
 ! R92   R(73,75)                1.4396                                         !
 ! R93   R(75,76)                1.3997                                         !
 ! R94   R(75,96)                1.4141                                         !
 ! R95   R(76,77)                1.0839                                         !
 ! R96   R(76,78)                1.3776                                         !
 ! R97   R(78,79)                1.0829                                         !
 ! R98   R(78,80)                1.4033                                         !
 ! R99   R(80,92)                1.4694                                         !
 ! R100  R(80,95)                1.4107                                         !
 ! R101  R(81,82)                1.3411                                         !
 ! R102  R(81,91)                1.4055                                         !
 ! R103  R(81,94)                1.398                                          !
 ! R104  R(82,83)                1.3391                                         !
 ! R105  R(83,84)                1.4184                                         !
 ! R106  R(83,90)                1.4416                                         !
 ! R107  R(84,85)                1.0789                                         !
 ! R108  R(84,86)                1.368                                          !
 ! R109  R(86,87)                1.4416                                         !
 ! R110  R(86,104)               1.3971                                         !
 ! R111  R(87,88)                1.4184                                         !
 ! R112  R(87,106)               1.3392                                         !
 ! R113  R(88,89)                1.0789                                         !
 ! R114  R(88,90)                1.368                                          !
 ! R115  R(90,91)                1.3971                                         !
 ! R116  R(91,92)                1.3884                                         !
 ! R117  R(92,93)                1.223                                          !
 ! R118  R(94,95)                1.4344                                         !
 ! R119  R(95,96)                1.4294                                         !
 ! R120  R(97,98)                1.0839                                         !
 ! R121  R(97,99)                1.3776                                         !
 ! R122  R(97,118)               1.3996                                         !
 ! R123  R(99,100)               1.0829                                         !
 ! R124  R(99,101)               1.4033                                         !
 ! R125  R(101,102)              1.4694                                         !
 ! R126  R(101,120)              1.4107                                         !
 ! R127  R(102,103)              1.223                                          !
 ! R128  R(102,104)              1.3884                                         !
 ! R129  R(104,105)              1.4055                                         !
 ! R130  R(105,106)              1.3411                                         !
 ! R131  R(105,107)              1.398                                          !
 ! R132  R(107,108)              1.4211                                         !
 ! R133  R(107,120)              1.4344                                         !
 ! R134  R(108,109)              1.0829                                         !
 ! R135  R(108,110)              1.3667                                         !
 ! R136  R(110,111)              1.0844                                         !
 ! R137  R(110,112)              1.4135                                         !
 ! R138  R(112,116)              1.4445                                         !
 ! R139  R(112,119)              1.4201                                         !
 ! R140  R(113,114)              1.3102                                         !
 ! R141  R(113,115)              1.3933                                         !
 ! R142  R(113,118)              1.4396                                         !
 ! R143  R(114,133)              1.3816                                         !
 ! R144  R(115,116)              1.4152                                         !
 ! R145  R(115,131)              1.3951                                         !
 ! R146  R(116,117)              1.2238                                         !
 ! R147  R(118,119)              1.4141                                         !
 ! R148  R(119,120)              1.4294                                         !
 ! R149  R(121,122)              1.3982                                         !
 ! R150  R(121,126)              1.4114                                         !
 ! R151  R(122,123)              1.3861                                         !
 ! R152  R(122,127)              1.0842                                         !
 ! R153  R(123,124)              1.4022                                         !
 ! R154  R(123,128)              1.086                                          !
 ! R155  R(124,125)              1.39                                           !
 ! R156  R(124,129)              1.0851                                         !
 ! R157  R(125,126)              1.3888                                         !
 ! R158  R(125,130)              1.0805                                         !
 ! R159  R(131,132)              1.3865                                         !
 ! R160  R(131,133)              1.4201                                         !
 ! R161  R(132,134)              1.3942                                         !
 ! R162  R(132,136)              1.0792                                         !
 ! R163  R(133,135)              1.3958                                         !
 ! R164  R(134,137)              1.4189                                         !
 ! R165  R(134,138)              1.3854                                         !
 ! R166  R(135,137)              1.385                                          !
 ! R167  R(135,147)              1.0792                                         !
 ! R168  R(137,141)              1.399                                          !
 ! R169  R(138,139)              1.3076                                         !
 ! R170  R(139,141)              1.3993                                         !
 ! R171  R(139,142)              1.4368                                         !
 ! R172  R(140,142)              1.4064                                         !
 ! R173  R(140,144)              1.3741                                         !
 ! R174  R(140,149)              1.0834                                         !
 ! R175  R(141,143)              1.4014                                         !
 ! R176  R(142,145)              1.4142                                         !
 ! R177  R(143,146)              1.2214                                         !
 ! R178  R(143,148)              1.4601                                         !
 ! R179  R(144,150)              1.4087                                         !
 ! R180  R(144,155)              1.0835                                         !
 ! R181  R(145,148)              1.419                                          !
 ! R182  R(145,151)              1.4308                                         !
 ! R183  R(148,152)              1.4061                                         !
 ! R184  R(150,151)              1.4196                                         !
 ! R185  R(150,153)              1.452                                          !
 ! R186  R(151,156)              1.4145                                         !
 ! R187  R(152,157)              1.3745                                         !
 ! R188  R(152,162)              1.0834                                         !
 ! R189  R(153,154)              1.2237                                         !
 ! R190  R(153,159)              1.408                                          !
 ! R191  R(156,157)              1.4077                                         !
 ! R192  R(156,158)              1.4324                                         !
 ! R193  R(157,167)              1.0835                                         !
 ! R194  R(158,159)              1.3967                                         !
 ! R195  R(158,163)              1.3138                                         !
 ! R196  R(159,160)              1.395                                          !
 ! R197  R(160,161)              1.3848                                         !
 ! R198  R(160,164)              1.4212                                         !
 ! R199  R(161,165)              1.3942                                         !
 ! R200  R(161,168)              1.0792                                         !
 ! R201  R(163,164)              1.3796                                         !
 ! R202  R(164,166)              1.3949                                         !
 ! R203  R(165,169)              1.4165                                         !
 ! R204  R(165,170)              1.3876                                         !
 ! R205  R(166,169)              1.3861                                         !
 ! R206  R(166,179)              1.0791                                         !
 ! R207  R(169,173)              1.3997                                         !
 ! R208  R(170,171)              1.3041                                         !
 ! R209  R(171,173)              1.3996                                         !
 ! R210  R(171,174)              1.4391                                         !
 ! R211  R(172,174)              1.4046                                         !
 ! R212  R(172,176)              1.374                                          !
 ! R213  R(172,181)              1.0834                                         !
 ! R214  R(173,175)              1.399                                          !
 ! R215  R(174,177)              1.4132                                         !
 ! R216  R(175,178)              1.2196                                         !
 ! R217  R(175,180)              1.4637                                         !
 ! R218  R(176,182)              1.4098                                         !
 ! R219  R(176,187)              1.0834                                         !
 ! R220  R(177,180)              1.419                                          !
 ! R221  R(177,183)              1.4298                                         !
 ! R222  R(180,184)              1.4045                                         !
 ! R223  R(182,183)              1.4199                                         !
 ! R224  R(182,185)              1.4469                                         !
 ! R225  R(183,188)              1.4158                                         !
 ! R226  R(184,189)              1.3741                                         !
 ! R227  R(184,194)              1.0834                                         !
 ! R228  R(185,186)              1.2255                                         !
 ! R229  R(185,191)              1.4104                                         !
 ! R230  R(188,189)              1.4094                                         !
 ! R231  R(188,190)              1.4268                                         !
 ! R232  R(189,199)              1.0834                                         !
 ! R233  R(190,191)              1.3958                                         !
 ! R234  R(190,195)              1.3212                                         !
 ! R235  R(191,192)              1.3896                                         !
 ! R236  R(192,193)              1.3888                                         !
 ! R237  R(192,196)              1.4114                                         !
 ! R238  R(193,197)              1.3899                                         !
 ! R239  R(193,200)              1.0805                                         !
 ! R240  R(195,196)              1.3724                                         !
 ! R241  R(196,198)              1.3982                                         !
 ! R242  R(197,201)              1.4022                                         !
 ! R243  R(197,203)              1.0851                                         !
 ! R244  R(198,201)              1.3861                                         !
 ! R245  R(198,202)              1.0842                                         !
 ! R246  R(201,204)              1.086                                          !
 ! A1    A(2,1,3)              121.5407                                         !
 ! A2    A(2,1,30)             118.0549                                         !
 ! A3    A(3,1,30)             120.4043                                         !
 ! A4    A(1,3,4)              121.2087                                         !
 ! A5    A(1,3,5)              120.9591                                         !
 ! A6    A(4,3,5)              117.8322                                         !
 ! A7    A(3,5,6)              118.9862                                         !
 ! A8    A(3,5,32)             119.84                                           !
 ! A9    A(6,5,32)             121.1738                                         !
 ! A10   A(5,6,7)              126.3315                                         !
 ! A11   A(5,6,8)              114.0278                                         !
 ! A12   A(7,6,8)              119.6407                                         !
 ! A13   A(6,8,9)              126.2694                                         !
 ! A14   A(6,8,126)            127.4426                                         !
 ! A15   A(9,8,126)            106.288                                          !
 ! A16   A(8,9,10)             112.7447                                         !
 ! A17   A(8,9,11)             118.8264                                         !
 ! A18   A(10,9,11)            128.4289                                         !
 ! A19   A(9,10,121)           104.9998                                         !
 ! A20   A(9,11,12)            121.8261                                         !
 ! A21   A(9,11,32)            117.6636                                         !
 ! A22   A(12,11,32)           120.5102                                         !
 ! A23   A(11,12,13)           118.2447                                         !
 ! A24   A(11,12,14)           120.3252                                         !
 ! A25   A(13,12,14)           121.4301                                         !
 ! A26   A(12,14,15)           121.3417                                         !
 ! A27   A(12,14,16)           120.9611                                         !
 ! A28   A(15,14,16)           117.6972                                         !
 ! A29   A(14,16,28)           118.6342                                         !
 ! A30   A(14,16,31)           120.0089                                         !
 ! A31   A(28,16,31)           121.3569                                         !
 ! A32   A(18,17,27)           113.1103                                         !
 ! A33   A(18,17,30)           127.7248                                         !
 ! A34   A(27,17,30)           119.1649                                         !
 ! A35   A(17,18,19)           105.5337                                         !
 ! A36   A(18,19,20)           128.0031                                         !
 ! A37   A(18,19,26)           110.7124                                         !
 ! A38   A(20,19,26)           121.2845                                         !
 ! A39   A(19,20,21)           122.6835                                         !
 ! A40   A(19,20,22)           115.1492                                         !
 ! A41   A(21,20,22)           122.1673                                         !
 ! A42   A(20,22,23)           123.6528                                         !
 ! A43   A(20,22,40)           131.9405                                         !
 ! A44   A(23,22,40)           104.4068                                         !
 ! A45   A(22,23,24)           121.073                                          !
 ! A46   A(22,23,42)           110.8704                                         !
 ! A47   A(24,23,42)           128.0566                                         !
 ! A48   A(23,24,25)           122.2884                                         !
 ! A49   A(23,24,26)           115.186                                          !
 ! A50   A(25,24,26)           122.5256                                         !
 ! A51   A(19,26,24)           123.6545                                         !
 ! A52   A(19,26,27)           104.4229                                         !
 ! A53   A(24,26,27)           131.9226                                         !
 ! A54   A(17,27,26)           106.2207                                         !
 ! A55   A(17,27,28)           125.6318                                         !
 ! A56   A(26,27,28)           128.1475                                         !
 ! A57   A(16,28,27)           114.4892                                         !
 ! A58   A(16,28,29)           124.495                                          !
 ! A59   A(27,28,29)           121.0158                                         !
 ! A60   A(1,30,17)            121.6127                                         !
 ! A61   A(1,30,31)            120.4804                                         !
 ! A62   A(17,30,31)           117.9068                                         !
 ! A63   A(16,31,30)           121.4503                                         !
 ! A64   A(16,31,32)           119.3397                                         !
 ! A65   A(30,31,32)           119.21                                           !
 ! A66   A(5,32,11)            122.039                                          !
 ! A67   A(5,32,31)            119.1062                                         !
 ! A68   A(11,32,31)           118.8548                                         !
 ! A69   A(34,33,35)           121.5025                                         !
 ! A70   A(34,33,62)           118.074                                          !
 ! A71   A(35,33,62)           120.4235                                         !
 ! A72   A(33,35,36)           121.2087                                         !
 ! A73   A(33,35,37)           121.0319                                         !
 ! A74   A(36,35,37)           117.7594                                         !
 ! A75   A(35,37,38)           118.9702                                         !
 ! A76   A(35,37,64)           119.7931                                         !
 ! A77   A(38,37,64)           121.2367                                         !
 ! A78   A(37,38,39)           125.7107                                         !
 ! A79   A(37,38,40)           114.2588                                         !
 ! A80   A(39,38,40)           120.0305                                         !
 ! A81   A(22,40,38)           127.6584                                         !
 ! A82   A(22,40,41)           106.3647                                         !
 ! A83   A(38,40,41)           125.9769                                         !
 ! A84   A(40,41,42)           112.9933                                         !
 ! A85   A(40,41,43)           118.9067                                         !
 ! A86   A(42,41,43)           128.1                                            !
 ! A87   A(23,42,41)           105.3648                                         !
 ! A88   A(41,43,44)           121.7285                                         !
 ! A89   A(41,43,64)           117.8031                                         !
 ! A90   A(44,43,64)           120.4685                                         !
 ! A91   A(43,44,45)           118.1533                                         !
 ! A92   A(43,44,46)           120.3816                                         !
 ! A93   A(45,44,46)           121.465                                          !
 ! A94   A(44,46,47)           121.3068                                         !
 ! A95   A(44,46,48)           120.9648                                         !
 ! A96   A(47,46,48)           117.7285                                         !
 ! A97   A(46,48,60)           118.768                                          !
 ! A98   A(46,48,63)           119.934                                          !
 ! A99   A(60,48,63)           121.2981                                         !
 ! A100  A(50,49,59)           113.0413                                         !
 ! A101  A(50,49,62)           127.8997                                         !
 ! A102  A(59,49,62)           119.0589                                         !
 ! A103  A(49,50,51)           105.5413                                         !
 ! A104  A(50,51,52)           128.0379                                         !
 ! A105  A(50,51,58)           110.72                                           !
 ! A106  A(52,51,58)           121.2421                                         !
 ! A107  A(51,52,53)           122.6155                                         !
 ! A108  A(51,52,54)           115.245                                          !
 ! A109  A(53,52,54)           122.1394                                         !
 ! A110  A(52,54,55)           123.4967                                         !
 ! A111  A(52,54,72)           132.0658                                         !
 ! A112  A(55,54,72)           104.4375                                         !
 ! A113  A(54,55,56)           121.2027                                         !
 ! A114  A(54,55,74)           110.7279                                         !
 ! A115  A(56,55,74)           128.0694                                         !
 ! A116  A(55,56,57)           122.4022                                         !
 ! A117  A(55,56,58)           115.2094                                         !
 ! A118  A(57,56,58)           122.3884                                         !
 ! A119  A(51,58,56)           123.604                                          !
 ! A120  A(51,58,59)           104.427                                          !
 ! A121  A(56,58,59)           131.969                                          !
 ! A122  A(49,59,58)           106.2703                                         !
 ! A123  A(49,59,60)           125.7364                                         !
 ! A124  A(58,59,60)           127.9933                                         !
 ! A125  A(48,60,59)           114.453                                          !
 ! A126  A(48,60,61)           124.8569                                         !
 ! A127  A(59,60,61)           120.6901                                         !
 ! A128  A(33,62,49)           121.7259                                         !
 ! A129  A(33,62,63)           120.3824                                         !
 ! A130  A(49,62,63)           117.8917                                         !
 ! A131  A(48,63,62)           121.5619                                         !
 ! A132  A(48,63,64)           119.2701                                         !
 ! A133  A(62,63,64)           119.168                                          !
 ! A134  A(37,64,43)           121.8178                                         !
 ! A135  A(37,64,63)           119.2011                                         !
 ! A136  A(43,64,63)           118.9811                                         !
 ! A137  A(66,65,67)           121.538                                          !
 ! A138  A(66,65,94)           118.0558                                         !
 ! A139  A(67,65,94)           120.4063                                         !
 ! A140  A(65,67,68)           120.744                                          !
 ! A141  A(65,67,69)           122.0491                                         !
 ! A142  A(68,67,69)           117.207                                          !
 ! A143  A(67,69,70)           119.2187                                         !
 ! A144  A(67,69,96)           119.1586                                         !
 ! A145  A(70,69,96)           121.6227                                         !
 ! A146  A(69,70,71)           126.1694                                         !
 ! A147  A(69,70,72)           114.2098                                         !
 ! A148  A(71,70,72)           119.6208                                         !
 ! A149  A(54,72,70)           127.8366                                         !
 ! A150  A(54,72,73)           106.3018                                         !
 ! A151  A(70,72,73)           125.8616                                         !
 ! A152  A(72,73,74)           113.2136                                         !
 ! A153  A(72,73,75)           118.9179                                         !
 ! A154  A(74,73,75)           127.8685                                         !
 ! A155  A(55,74,73)           105.3192                                         !
 ! A156  A(73,75,76)           121.6055                                         !
 ! A157  A(73,75,96)           117.6897                                         !
 ! A158  A(76,75,96)           120.7048                                         !
 ! A159  A(75,76,77)           118.0456                                         !
 ! A160  A(75,76,78)           120.5554                                         !
 ! A161  A(77,76,78)           121.3989                                         !
 ! A162  A(76,78,79)           121.6425                                         !
 ! A163  A(76,78,80)           120.3343                                         !
 ! A164  A(79,78,80)           118.0232                                         !
 ! A165  A(78,80,92)           118.3415                                         !
 ! A166  A(78,80,95)           120.4521                                         !
 ! A167  A(92,80,95)           121.2064                                         !
 ! A168  A(82,81,91)           111.2931                                         !
 ! A169  A(82,81,94)           128.672                                          !
 ! A170  A(91,81,94)           120.0349                                         !
 ! A171  A(81,82,83)           106.6295                                         !
 ! A172  A(82,83,84)           128.1249                                         !
 ! A173  A(82,83,90)           111.4176                                         !
 ! A174  A(84,83,90)           120.4575                                         !
 ! A175  A(83,84,85)           122.1106                                         !
 ! A176  A(83,84,86)           115.2608                                         !
 ! A177  A(85,84,86)           122.6286                                         !
 ! A178  A(84,86,87)           124.2818                                         !
 ! A179  A(84,86,104)          131.8669                                         !
 ! A180  A(87,86,104)          103.8514                                         !
 ! A181  A(86,87,88)           120.4575                                         !
 ! A182  A(86,87,106)          111.4174                                         !
 ! A183  A(88,87,106)          128.125                                          !
 ! A184  A(87,88,89)           122.1107                                         !
 ! A185  A(87,88,90)           115.2608                                         !
 ! A186  A(89,88,90)           122.6286                                         !
 ! A187  A(83,90,88)           124.2817                                         !
 ! A188  A(83,90,91)           103.8513                                         !
 ! A189  A(88,90,91)           131.867                                          !
 ! A190  A(81,91,90)           106.8085                                         !
 ! A191  A(81,91,92)           125.7417                                         !
 ! A192  A(90,91,92)           127.4498                                         !
 ! A193  A(80,92,91)           114.078                                          !
 ! A194  A(80,92,93)           124.5844                                         !
 ! A195  A(91,92,93)           121.3376                                         !
 ! A196  A(65,94,81)           123.0233                                         !
 ! A197  A(65,94,95)           119.3356                                         !
 ! A198  A(81,94,95)           117.6412                                         !
 ! A199  A(80,95,94)           121.2978                                         !
 ! A200  A(80,95,96)           119.3244                                         !
 ! A201  A(94,95,96)           119.3778                                         !
 ! A202  A(69,96,75)           121.6984                                         !
 ! A203  A(69,96,95)           119.6727                                         !
 ! A204  A(75,96,95)           118.6289                                         !
 ! A205  A(98,97,99)           121.3988                                         !
 ! A206  A(98,97,118)          118.0458                                         !
 ! A207  A(99,97,118)          120.5554                                         !
 ! A208  A(97,99,100)          121.6424                                         !
 ! A209  A(97,99,101)          120.3343                                         !
 ! A210  A(100,99,101)         118.0234                                         !
 ! A211  A(99,101,102)         118.3415                                         !
 ! A212  A(99,101,120)         120.4522                                         !
 ! A213  A(102,101,120)        121.2063                                         !
 ! A214  A(101,102,103)        124.5841                                         !
 ! A215  A(101,102,104)        114.0781                                         !
 ! A216  A(103,102,104)        121.3378                                         !
 ! A217  A(86,104,102)         127.4498                                         !
 ! A218  A(86,104,105)         106.8084                                         !
 ! A219  A(102,104,105)        125.7418                                         !
 ! A220  A(104,105,106)        111.2931                                         !
 ! A221  A(104,105,107)        120.0348                                         !
 ! A222  A(106,105,107)        128.6721                                         !
 ! A223  A(87,106,105)         106.6297                                         !
 ! A224  A(105,107,108)        123.0233                                         !
 ! A225  A(105,107,120)        117.6412                                         !
 ! A226  A(108,107,120)        119.3355                                         !
 ! A227  A(107,108,109)        118.0559                                         !
 ! A228  A(107,108,110)        120.4063                                         !
 ! A229  A(109,108,110)        121.5378                                         !
 ! A230  A(108,110,111)        120.7439                                         !
 ! A231  A(108,110,112)        122.0491                                         !
 ! A232  A(111,110,112)        117.2071                                         !
 ! A233  A(110,112,116)        119.2188                                         !
 ! A234  A(110,112,119)        119.1586                                         !
 ! A235  A(116,112,119)        121.6227                                         !
 ! A236  A(114,113,115)        113.2137                                         !
 ! A237  A(114,113,118)        127.8684                                         !
 ! A238  A(115,113,118)        118.9179                                         !
 ! A239  A(113,114,133)        105.3193                                         !
 ! A240  A(113,115,116)        125.8616                                         !
 ! A241  A(113,115,131)        106.3017                                         !
 ! A242  A(116,115,131)        127.8367                                         !
 ! A243  A(112,116,115)        114.2099                                         !
 ! A244  A(112,116,117)        126.1691                                         !
 ! A245  A(115,116,117)        119.621                                          !
 ! A246  A(97,118,113)         121.6055                                         !
 ! A247  A(97,118,119)         120.7049                                         !
 ! A248  A(113,118,119)        117.6896                                         !
 ! A249  A(112,119,118)        121.6983                                         !
 ! A250  A(112,119,120)        119.6727                                         !
 ! A251  A(118,119,120)        118.6289                                         !
 ! A252  A(101,120,107)        121.2978                                         !
 ! A253  A(101,120,119)        119.3243                                         !
 ! A254  A(107,120,119)        119.3779                                         !
 ! A255  A(10,121,122)         129.4111                                         !
 ! A256  A(10,121,126)         111.3584                                         !
 ! A257  A(122,121,126)        119.2305                                         !
 ! A258  A(121,122,123)        118.4383                                         !
 ! A259  A(121,122,127)        119.7154                                         !
 ! A260  A(123,122,127)        121.8463                                         !
 ! A261  A(122,123,124)        121.392                                          !
 ! A262  A(122,123,128)        119.4165                                         !
 ! A263  A(124,123,128)        119.1915                                         !
 ! A264  A(123,124,125)        121.254                                          !
 ! A265  A(123,124,129)        119.4885                                         !
 ! A266  A(125,124,129)        119.2575                                         !
 ! A267  A(124,125,126)        116.9662                                         !
 ! A268  A(124,125,130)        122.8746                                         !
 ! A269  A(126,125,130)        120.1593                                         !
 ! A270  A(8,126,121)          104.6091                                         !
 ! A271  A(8,126,125)          132.6719                                         !
 ! A272  A(121,126,125)        122.719                                          !
 ! A273  A(115,131,132)        132.0658                                         !
 ! A274  A(115,131,133)        104.4375                                         !
 ! A275  A(132,131,133)        123.4967                                         !
 ! A276  A(131,132,134)        115.245                                          !
 ! A277  A(131,132,136)        122.1396                                         !
 ! A278  A(134,132,136)        122.6154                                         !
 ! A279  A(114,133,131)        110.7278                                         !
 ! A280  A(114,133,135)        128.0693                                         !
 ! A281  A(131,133,135)        121.2029                                         !
 ! A282  A(132,134,137)        121.2421                                         !
 ! A283  A(132,134,138)        128.0379                                         !
 ! A284  A(137,134,138)        110.72                                           !
 ! A285  A(133,135,137)        115.2093                                         !
 ! A286  A(133,135,147)        122.4023                                         !
 ! A287  A(137,135,147)        122.3884                                         !
 ! A288  A(134,137,135)        123.604                                          !
 ! A289  A(134,137,141)        104.427                                          !
 ! A290  A(135,137,141)        131.969                                          !
 ! A291  A(134,138,139)        105.5413                                         !
 ! A292  A(138,139,141)        113.0413                                         !
 ! A293  A(138,139,142)        127.8998                                         !
 ! A294  A(141,139,142)        119.0589                                         !
 ! A295  A(142,140,144)        120.4235                                         !
 ! A296  A(142,140,149)        118.074                                          !
 ! A297  A(144,140,149)        121.5025                                         !
 ! A298  A(137,141,139)        106.2704                                         !
 ! A299  A(137,141,143)        127.9932                                         !
 ! A300  A(139,141,143)        125.7365                                         !
 ! A301  A(139,142,140)        121.7259                                         !
 ! A302  A(139,142,145)        117.8916                                         !
 ! A303  A(140,142,145)        120.3825                                         !
 ! A304  A(141,143,146)        120.69                                           !
 ! A305  A(141,143,148)        114.453                                          !
 ! A306  A(146,143,148)        124.8571                                         !
 ! A307  A(140,144,150)        121.0319                                         !
 ! A308  A(140,144,155)        121.2086                                         !
 ! A309  A(150,144,155)        117.7595                                         !
 ! A310  A(142,145,148)        121.562                                          !
 ! A311  A(142,145,151)        119.1679                                         !
 ! A312  A(148,145,151)        119.2701                                         !
 ! A313  A(143,148,145)        121.298                                          !
 ! A314  A(143,148,152)        118.768                                          !
 ! A315  A(145,148,152)        119.934                                          !
 ! A316  A(144,150,151)        119.7931                                         !
 ! A317  A(144,150,153)        118.9702                                         !
 ! A318  A(151,150,153)        121.2367                                         !
 ! A319  A(145,151,150)        119.2011                                         !
 ! A320  A(145,151,156)        118.9811                                         !
 ! A321  A(150,151,156)        121.8178                                         !
 ! A322  A(148,152,157)        120.9648                                         !
 ! A323  A(148,152,162)        117.7285                                         !
 ! A324  A(157,152,162)        121.3068                                         !
 ! A325  A(150,153,154)        125.7106                                         !
 ! A326  A(150,153,159)        114.2588                                         !
 ! A327  A(154,153,159)        120.0306                                         !
 ! A328  A(151,156,157)        120.4685                                         !
 ! A329  A(151,156,158)        117.8031                                         !
 ! A330  A(157,156,158)        121.7284                                         !
 ! A331  A(152,157,156)        120.3816                                         !
 ! A332  A(152,157,167)        121.4651                                         !
 ! A333  A(156,157,167)        118.1533                                         !
 ! A334  A(156,158,159)        118.9067                                         !
 ! A335  A(156,158,163)        128.1                                            !
 ! A336  A(159,158,163)        112.9934                                         !
 ! A337  A(153,159,158)        125.9769                                         !
 ! A338  A(153,159,160)        127.6585                                         !
 ! A339  A(158,159,160)        106.3647                                         !
 ! A340  A(159,160,161)        131.9405                                         !
 ! A341  A(159,160,164)        104.4068                                         !
 ! A342  A(161,160,164)        123.6527                                         !
 ! A343  A(160,161,165)        115.1492                                         !
 ! A344  A(160,161,168)        122.1674                                         !
 ! A345  A(165,161,168)        122.6834                                         !
 ! A346  A(158,163,164)        105.3648                                         !
 ! A347  A(160,164,163)        110.8703                                         !
 ! A348  A(160,164,166)        121.0731                                         !
 ! A349  A(163,164,166)        128.0565                                         !
 ! A350  A(161,165,169)        121.2845                                         !
 ! A351  A(161,165,170)        128.0031                                         !
 ! A352  A(169,165,170)        110.7124                                         !
 ! A353  A(164,166,169)        115.186                                          !
 ! A354  A(164,166,179)        122.2884                                         !
 ! A355  A(169,166,179)        122.5256                                         !
 ! A356  A(165,169,166)        123.6544                                         !
 ! A357  A(165,169,173)        104.4229                                         !
 ! A358  A(166,169,173)        131.9227                                         !
 ! A359  A(165,170,171)        105.5337                                         !
 ! A360  A(170,171,173)        113.1102                                         !
 ! A361  A(170,171,174)        127.7248                                         !
 ! A362  A(173,171,174)        119.1651                                         !
 ! A363  A(174,172,176)        120.4043                                         !
 ! A364  A(174,172,181)        118.0549                                         !
 ! A365  A(176,172,181)        121.5408                                         !
 ! A366  A(169,173,171)        106.2209                                         !
 ! A367  A(169,173,175)        128.1474                                         !
 ! A368  A(171,173,175)        125.6317                                         !
 ! A369  A(171,174,172)        121.6127                                         !
 ! A370  A(171,174,177)        117.9069                                         !
 ! A371  A(172,174,177)        120.4804                                         !
 ! A372  A(173,175,178)        121.0156                                         !
 ! A373  A(173,175,180)        114.4892                                         !
 ! A374  A(178,175,180)        124.4952                                         !
 ! A375  A(172,176,182)        120.9592                                         !
 ! A376  A(172,176,187)        121.2087                                         !
 ! A377  A(182,176,187)        117.8321                                         !
 ! A378  A(174,177,180)        121.4501                                         !
 ! A379  A(174,177,183)        119.2101                                         !
 ! A380  A(180,177,183)        119.3398                                         !
 ! A381  A(175,180,177)        121.357                                          !
 ! A382  A(175,180,184)        118.6342                                         !
 ! A383  A(177,180,184)        120.0088                                         !
 ! A384  A(176,182,183)        119.8398                                         !
 ! A385  A(176,182,185)        118.9864                                         !
 ! A386  A(183,182,185)        121.1737                                         !
 ! A387  A(177,183,182)        119.1062                                         !
 ! A388  A(177,183,188)        118.8548                                         !
 ! A389  A(182,183,188)        122.0391                                         !
 ! A390  A(180,184,189)        120.9611                                         !
 ! A391  A(180,184,194)        117.6973                                         !
 ! A392  A(189,184,194)        121.3416                                         !
 ! A393  A(182,185,186)        126.3322                                         !
 ! A394  A(182,185,191)        114.0277                                         !
 ! A395  A(186,185,191)        119.6401                                         !
 ! A396  A(183,188,189)        120.5102                                         !
 ! A397  A(183,188,190)        117.6638                                         !
 ! A398  A(189,188,190)        121.8259                                         !
 ! A399  A(184,189,188)        120.3254                                         !
 ! A400  A(184,189,199)        121.4299                                         !
 ! A401  A(188,189,199)        118.2448                                         !
 ! A402  A(188,190,191)        118.8259                                         !
 ! A403  A(188,190,195)        128.4294                                         !
 ! A404  A(191,190,195)        112.7447                                         !
 ! A405  A(185,191,190)        126.2697                                         !
 ! A406  A(185,191,192)        127.443                                          !
 ! A407  A(190,191,192)        106.2874                                         !
 ! A408  A(191,192,193)        132.6715                                         !
 ! A409  A(191,192,196)        104.6101                                         !
 ! A410  A(193,192,196)        122.7184                                         !
 ! A411  A(192,193,197)        116.967                                          !
 ! A412  A(192,193,200)        120.1577                                         !
 ! A413  A(197,193,200)        122.8754                                         !
 ! A414  A(190,195,196)        104.9991                                         !
 ! A415  A(192,196,195)        111.3588                                         !
 ! A416  A(192,196,198)        119.231                                          !
 ! A417  A(195,196,198)        129.4102                                         !
 ! A418  A(193,197,201)        121.2539                                         !
 ! A419  A(193,197,203)        119.2601                                         !
 ! A420  A(201,197,203)        119.486                                          !
 ! A421  A(196,198,201)        118.4379                                         !
 ! A422  A(196,198,202)        119.7126                                         !
 ! A423  A(201,198,202)        121.8495                                         !
 ! A424  A(197,201,198)        121.3919                                         !
 ! A425  A(197,201,204)        119.1951                                         !
 ! A426  A(198,201,204)        119.413                                          !
 ! D1    D(2,1,3,4)              0.0                                            !
 ! D2    D(2,1,3,5)           -179.9998                                         !
 ! D3    D(30,1,3,4)           179.9998                                         !
 ! D4    D(30,1,3,5)             0.0                                            !
 ! D5    D(2,1,30,17)            0.0002                                         !
 ! D6    D(2,1,30,31)         -180.0                                            !
 ! D7    D(3,1,30,17)         -179.9996                                         !
 ! D8    D(3,1,30,31)            0.0002                                         !
 ! D9    D(1,3,5,6)            179.9997                                         !
 ! D10   D(1,3,5,32)            -0.0002                                         !
 ! D11   D(4,3,5,6)             -0.0001                                         !
 ! D12   D(4,3,5,32)          -180.0                                            !
 ! D13   D(3,5,6,7)              0.0                                            !
 ! D14   D(3,5,6,8)           -179.9996                                         !
 ! D15   D(32,5,6,7)           179.9999                                         !
 ! D16   D(32,5,6,8)             0.0003                                         !
 ! D17   D(3,5,32,11)          179.9999                                         !
 ! D18   D(3,5,32,31)            0.0002                                         !
 ! D19   D(6,5,32,11)            0.0                                            !
 ! D20   D(6,5,32,31)         -179.9997                                         !
 ! D21   D(5,6,8,9)             -0.0004                                         !
 ! D22   D(5,6,8,126)          179.9996                                         !
 ! D23   D(7,6,8,9)            180.0                                            !
 ! D24   D(7,6,8,126)            0.0                                            !
 ! D25   D(6,8,9,10)           179.9996                                         !
 ! D26   D(6,8,9,11)             0.0002                                         !
 ! D27   D(126,8,9,10)          -0.0004                                         !
 ! D28   D(126,8,9,11)        -179.9998                                         !
 ! D29   D(6,8,126,121)       -179.9996                                         !
 ! D30   D(6,8,126,125)          0.0001                                         !
 ! D31   D(9,8,126,121)          0.0004                                         !
 ! D32   D(9,8,126,125)       -179.9999                                         !
 ! D33   D(8,9,10,121)           0.0002                                         !
 ! D34   D(11,9,10,121)        179.9995                                         !
 ! D35   D(8,9,11,12)          179.9997                                         !
 ! D36   D(8,9,11,32)            0.0001                                         !
 ! D37   D(10,9,11,12)           0.0004                                         !
 ! D38   D(10,9,11,32)        -179.9992                                         !
 ! D39   D(9,10,121,122)      -179.9999                                         !
 ! D40   D(9,10,121,126)         0.0001                                         !
 ! D41   D(9,11,12,13)           0.0003                                         !
 ! D42   D(9,11,12,14)        -179.9995                                         !
 ! D43   D(32,11,12,13)        179.9999                                         !
 ! D44   D(32,11,12,14)          0.0001                                         !
 ! D45   D(9,11,32,5)           -0.0003                                         !
 ! D46   D(9,11,32,31)         179.9995                                         !
 ! D47   D(12,11,32,5)        -179.9999                                         !
 ! D48   D(12,11,32,31)         -0.0001                                         !
 ! D49   D(11,12,14,15)        179.9996                                         !
 ! D50   D(11,12,14,16)          0.0001                                         !
 ! D51   D(13,12,14,15)         -0.0002                                         !
 ! D52   D(13,12,14,16)       -179.9997                                         !
 ! D53   D(12,14,16,28)        179.9992                                         !
 ! D54   D(12,14,16,31)         -0.0003                                         !
 ! D55   D(15,14,16,28)         -0.0003                                         !
 ! D56   D(15,14,16,31)       -179.9998                                         !
 ! D57   D(14,16,28,27)        179.9999                                         !
 ! D58   D(14,16,28,29)          0.0022                                         !
 ! D59   D(31,16,28,27)         -0.0006                                         !
 ! D60   D(31,16,28,29)       -179.9983                                         !
 ! D61   D(14,16,31,30)        179.9999                                         !
 ! D62   D(14,16,31,32)          0.0002                                         !
 ! D63   D(28,16,31,30)          0.0005                                         !
 ! D64   D(28,16,31,32)       -179.9992                                         !
 ! D65   D(27,17,18,19)          0.0001                                         !
 ! D66   D(30,17,18,19)        179.9996                                         !
 ! D67   D(18,17,27,26)         -0.0003                                         !
 ! D68   D(18,17,27,28)        179.9995                                         !
 ! D69   D(30,17,27,26)       -179.9999                                         !
 ! D70   D(30,17,27,28)          0.0                                            !
 ! D71   D(18,17,30,1)           0.0002                                         !
 ! D72   D(18,17,30,31)       -179.9996                                         !
 ! D73   D(27,17,30,1)         179.9997                                         !
 ! D74   D(27,17,30,31)         -0.0001                                         !
 ! D75   D(17,18,19,20)       -179.9992                                         !
 ! D76   D(17,18,19,26)          0.0002                                         !
 ! D77   D(18,19,20,21)          0.0001                                         !
 ! D78   D(18,19,20,22)        179.9994                                         !
 ! D79   D(26,19,20,21)       -179.9993                                         !
 ! D80   D(26,19,20,22)          0.0                                            !
 ! D81   D(18,19,26,24)       -179.9998                                         !
 ! D82   D(18,19,26,27)         -0.0004                                         !
 ! D83   D(20,19,26,24)         -0.0003                                         !
 ! D84   D(20,19,26,27)        179.9991                                         !
 ! D85   D(19,20,22,23)          0.0003                                         !
 ! D86   D(19,20,22,40)       -179.9987                                         !
 ! D87   D(21,20,22,23)        179.9996                                         !
 ! D88   D(21,20,22,40)          0.0006                                         !
 ! D89   D(20,22,23,24)         -0.0002                                         !
 ! D90   D(20,22,23,42)        179.9999                                         !
 ! D91   D(40,22,23,24)        179.999                                          !
 ! D92   D(40,22,23,42)         -0.0008                                         !
 ! D93   D(20,22,40,38)          0.0005                                         !
 ! D94   D(20,22,40,41)       -179.9998                                         !
 ! D95   D(23,22,40,38)       -179.9986                                         !
 ! D96   D(23,22,40,41)          0.0011                                         !
 ! D97   D(22,23,24,25)       -179.9996                                         !
 ! D98   D(22,23,24,26)         -0.0001                                         !
 ! D99   D(42,23,24,25)          0.0002                                         !
 ! D100  D(42,23,24,26)        179.9997                                         !
 ! D101  D(22,23,42,41)          0.0002                                         !
 ! D102  D(24,23,42,41)       -179.9996                                         !
 ! D103  D(23,24,26,19)          0.0003                                         !
 ! D104  D(23,24,26,27)       -179.9989                                         !
 ! D105  D(25,24,26,19)        179.9999                                         !
 ! D106  D(25,24,26,27)          0.0006                                         !
 ! D107  D(19,26,27,17)          0.0004                                         !
 ! D108  D(19,26,27,28)       -179.9994                                         !
 ! D109  D(24,26,27,17)        179.9998                                         !
 ! D110  D(24,26,27,28)          0.0                                            !
[...]
   135  C   -0.066141  -0.028850
   136  H    0.123939  -0.002165
   137  C    0.227112   0.030466
   138  N   -0.386718   0.107199
   139  C    0.521223  -0.042794
   140  C   -0.039382   0.015168
   141  N   -0.596119  -0.019528
   142  C   -0.302542   0.164035
   143  C    0.524860   0.015800
   144  C   -0.063080   0.101763
   145  C    0.145287  -0.070082
   146  O   -0.390092   0.084801
   147  H    0.120631   0.001051
   148  C   -0.308729   0.149724
   149  H    0.090449  -0.001282
   150  C   -0.309642   0.087291
   151  C    0.154661  -0.042292
   152  C   -0.063151   0.040000
   153  C    0.517013   0.031037
   154  O   -0.400984   0.082694
   155  H    0.089052  -0.005423
   156  C   -0.314380   0.109427
   157  C   -0.039619   0.081838
   158  C    0.527186   0.002433
   159  N   -0.593073  -0.020401
   160  C    0.224056   0.006513
   161  C   -0.058096   0.018424
   162  H    0.091217  -0.002542
   163  N   -0.395864   0.081856
   164  C   -0.029578   0.004750
   165  C   -0.043994  -0.006822
   166  C   -0.067638   0.011745
   167  H    0.086393  -0.004315
   168  H    0.126197  -0.001206
   169  C    0.230218   0.013639
   170  N   -0.381309   0.105455
   171  C    0.521067  -0.046769
   172  C   -0.034910  -0.021208
   173  N   -0.598231  -0.016109
   174  C   -0.297674   0.186353
   175  C    0.531216   0.005728
   176  C   -0.062938   0.137318
   177  C    0.141534  -0.082439
   178  O   -0.381544   0.083882
   179  H    0.120600  -0.000935
   180  C   -0.309462   0.185193
   181  H    0.095387   0.000385
   182  C   -0.306318   0.046609
   183  C    0.158003  -0.027591
   184  C   -0.059838   0.002424
   185  C    0.512637   0.043287
   186  O   -0.408928   0.084699
   187  H    0.090199  -0.007099
   188  C   -0.313906   0.076569
   189  C   -0.041146   0.122183
   190  C    0.524202   0.018186
   191  N   -0.581078  -0.021979
   192  C    0.207004   0.028813
   193  C   -0.063269  -0.021936
   194  H    0.095145  -0.000776
   195  N   -0.397126   0.073314
   196  C   -0.013677  -0.021349
   197  C   -0.147752   0.036698
   198  C   -0.117060   0.033387
   199  H    0.084139  -0.006177
   200  H    0.126780   0.000681
   201  C   -0.120808  -0.022363
   202  H    0.081520  -0.001726
   203  H    0.074503  -0.001938
   204  H    0.070500   0.001028
 Sum of Mulliken charges =  -6.00000   4.00000
 Mulliken charges and spin densities with hydrogens summed into heavy atoms:
               1          2
     1  C    0.060477  -0.020823
     3  C    0.027262   0.130219
     5  C   -0.306322   0.046607
     6  C    0.512639   0.043286
     7  O   -0.408926   0.084697
     8  N   -0.581082  -0.021978
     9  C    0.524209   0.018188
    10  N   -0.397125   0.073314
    11  C   -0.313908   0.076569
    12  C    0.042993   0.116008
    14  C    0.035307   0.001646
    16  C   -0.309463   0.185197
    17  C    0.521067  -0.046769
    18  N   -0.381308   0.105454
    19  C   -0.043995  -0.006822
    20  C    0.068101   0.017218
    22  C    0.224055   0.006512
    23  C   -0.029577   0.004750
    24  C    0.052962   0.010809
    26  C    0.230219   0.013640
    27  N   -0.598231  -0.016109
    28  C    0.531216   0.005727
    29  O   -0.381545   0.083883
    30  C   -0.297673   0.186352
    31  C    0.141534  -0.082439
    32  C    0.158004  -0.027591
    33  C    0.051066   0.013880
    35  C    0.025972   0.096345
    37  C   -0.309643   0.087286
    38  C    0.517012   0.031038
    39  O   -0.400985   0.082694
    40  N   -0.593073  -0.020401
    41  C    0.527186   0.002435
    42  N   -0.395865   0.081855
    43  C   -0.314381   0.109422
    44  C    0.046774   0.077528
    46  C    0.028065   0.037453
    48  C   -0.308729   0.149728
    49  C    0.521222  -0.042798
    50  N   -0.386717   0.107203
    51  C   -0.038203  -0.033285
    52  C    0.060281   0.042605
    54  C    0.225862  -0.020041
    55  C   -0.034957   0.030354
    56  C    0.054486  -0.027800
    58  C    0.227113   0.030467
    59  N   -0.596119  -0.019528
    60  C    0.524860   0.015799
    61  O   -0.390092   0.084800
    62  C   -0.302541   0.164041
    63  C    0.145286  -0.070085
    64  C    0.154661  -0.042289
    65  C    0.018150   0.001760
    67  C    0.036873  -0.000748
    69  C   -0.329873   0.002763
    70  C    0.515833  -0.000886
    71  O   -0.405575  -0.000907
    72  N   -0.592902   0.001634
    73  C    0.526169   0.011424
    74  N   -0.392450  -0.007574
    75  C   -0.311400  -0.004519
    76  C    0.064429   0.003245
    78  C    0.016074  -0.002111
    80  C   -0.289980   0.002939
    81  C    0.488525   0.001601
    82  N   -0.365370   0.001307
    83  C   -0.030411   0.000317
    84  C    0.059969   0.001980
    86  C    0.227174  -0.000719
    87  C   -0.030415   0.000317
    88  C    0.059973   0.001980
    90  C    0.227172  -0.000719
    91  N   -0.593729   0.000362
    92  C    0.524089  -0.000576
    93  O   -0.394502   0.000018
    94  C   -0.273162   0.000426
    95  C    0.128186  -0.000736
    96  C    0.156695   0.001450
    97  C    0.064432   0.003245
    99  C    0.016078  -0.002111
   101  C   -0.289980   0.002940
   102  C    0.524093  -0.000576
   103  O   -0.394498   0.000019
   104  N   -0.593730   0.000362
   105  C    0.488521   0.001601
   106  N   -0.365367   0.001307
   107  C   -0.273155   0.000427
   108  C    0.018152   0.001759
   110  C    0.036876  -0.000747
   112  C   -0.329872   0.002762
   113  C    0.526169   0.011424
   114  N   -0.392447  -0.007574
   115  N   -0.592904   0.001634
   116  C    0.515835  -0.000886
   117  O   -0.405570  -0.000907
   118  C   -0.311395  -0.004519
   119  C    0.156695   0.001450
   120  C    0.128184  -0.000737
   121  C   -0.013665  -0.021349
   122  C   -0.035544   0.031664
   123  C   -0.050303  -0.021335
   124  C   -0.073265   0.034763
   125  C    0.063514  -0.021256
   126  C    0.206997   0.028812
   131  C    0.225865  -0.020041
   132  C    0.060281   0.042604
   133  C   -0.034959   0.030354
   134  C   -0.038202  -0.033284
   135  C    0.054489  -0.027800
   137  C    0.227112   0.030466
   138  N   -0.386718   0.107199
   139  C    0.521223  -0.042794
   140  C    0.051067   0.013886
   141  N   -0.596119  -0.019528
   142  C   -0.302542   0.164035
   143  C    0.524860   0.015800
   144  C    0.025972   0.096340
   145  C    0.145287  -0.070082
   146  O   -0.390092   0.084801
   148  C   -0.308729   0.149724
   150  C   -0.309642   0.087291
   151  C    0.154661  -0.042292
   152  C    0.028066   0.037458
   153  C    0.517013   0.031037
   154  O   -0.400984   0.082694
   156  C   -0.314380   0.109427
   157  C    0.046774   0.077523
   158  C    0.527186   0.002433
   159  N   -0.593073  -0.020401
   160  C    0.224056   0.006513
   161  C    0.068101   0.017218
   163  N   -0.395864   0.081856
   164  C   -0.029578   0.004750
   165  C   -0.043994  -0.006822
   166  C    0.052963   0.010810
   169  C    0.230218   0.013639
   170  N   -0.381309   0.105455
   171  C    0.521067  -0.046769
   172  C    0.060477  -0.020823
   173  N   -0.598231  -0.016109
   174  C   -0.297674   0.186353
   175  C    0.531216   0.005728
   176  C    0.027261   0.130220
   177  C    0.141534  -0.082439
   178  O   -0.381544   0.083882
   180  C   -0.309462   0.185193
   182  C   -0.306318   0.046609
   183  C    0.158003  -0.027591
   184  C    0.035307   0.001648
   185  C    0.512637   0.043287
   186  O   -0.408928   0.084699
   188  C   -0.313906   0.076569
   189  C    0.042993   0.116006
   190  C    0.524202   0.018186
   191  N   -0.581078  -0.021979
   192  C    0.207004   0.028813
   193  C    0.063512  -0.021255
   195  N   -0.397126   0.073314
   196  C   -0.013677  -0.021349
   197  C   -0.073250   0.034761
   198  C   -0.035540   0.031660
   201  C   -0.050308  -0.021334
 Electronic spatial extent (au):  <R**2>=        1871528.2634
 Charge=             -6.0000 electrons
 Dipole moment (field-independent basis, Debye):
    X=              0.0027    Y=             -0.0000    Z=             -0.0004  Tot=              0.0027
 Quadrupole moment (field-independent basis, Debye-Ang):
   XX=         -15142.4892   YY=          -1091.2421   ZZ=           -936.7154
   XY=            -32.8357   XZ=              1.1028   YZ=              0.0021
 Traceless Quadrupole moment (field-independent basis, Debye-Ang):
   XX=          -9419.0070   YY=           4632.2401   ZZ=           4786.7668
   XY=            -32.8357   XZ=              1.1028   YZ=              0.0021
 Octapole moment (field-independent basis, Debye-Ang**2):
  XXX=              1.3124  YYY=             -0.0021  ZZZ=              0.0112  XYY=              0.0212
  XXY=              0.3241  XXZ=              6.2981  XZZ=              0.0038  YZZ=              0.0003
  YYZ=             -0.0118  XYZ=             -0.0028
 Hexadecapole moment (field-independent basis, Debye-Ang**3):
 XXXX=      -15340641.5628 YYYY=         -16382.3355 ZZZZ=           -989.6448 XXXY=         -42497.7926
 XXXZ=           1095.9594 YYYX=           -356.4403 YYYZ=             -0.0539 ZZZX=            106.7044
 ZZZY=             -0.1253 XXYY=        -526257.3193 XXZZ=        -460455.9239 YYZZ=          -2856.2180
 XXYZ=              2.5955 YYXZ=             40.4617 ZZXY=            163.9078
 N-N= 2.585604941090D+04 E-N=-6.839312370241D+04  KE= 7.019163359368D+03
 Leave Link  601 at Sat Apr 13 09:28:08 2024, MaxMem= 28185722880 cpu:             150.4 elap:               5.2
 (Enter /apps/gaussian/g16-c01-avx2/g16/l9999.exe)
 Unable to Open any file for archive entry.
 1\1\GINC-CX3-15-11\Stability\UwB97XD\6-311G(d,p)\C126H42N24O12(6-,5)\N
 S5018\13-Apr-2024\0\\#p wB97XD/6-311(d,p) Geom=AllCheck guess=read sta
 ble\\011\\-6,5\C,0,41.8427506558,2.2939685793,0.0012270188\H,0,41.1450
 290498,3.1227426567,0.0012037683\C,0,43.2015031534,2.4983044777,0.0012
 655405\H,0,43.6188153631,3.4980573699,0.001273238\C,0,44.0984931138,1.
 4106094345,0.0012922204\C,0,45.5210882284,1.6749177763,0.0013258441\O,
 0,46.0545962073,2.7782198214,0.0013342875\N,0,46.3210431552,0.51327567
 41,0.0013408258\C,0,45.8625423024,-0.8050140081,0.0013348531\N,0,46.84
 56027367,-1.6877575531,0.0013450224\C,0,44.4559640587,-1.0441491453,0.
 0013067239\C,0,43.9239418719,-2.3493001883,0.0012936137\H,0,44.6142046
 551,-3.1843391521,0.0013104837\C,0,42.563680275,-2.5440528004,0.001256
 3213\H,0,42.1369859327,-3.5399002933,0.0012399791\C,0,41.6777129777,-1
 .4542179537,0.0012276615\C,0,39.9016915424,0.7462857596,0.0011647876\N
 ,0,38.9404289005,1.6275670973,0.0011245138\C,0,37.763020411,0.89321640
 6,0.0010783072\C,0,36.4532530328,1.3711008338,0.0010101369\H,0,36.2171
 312217,2.4241345192,0.0009842362\C,0,35.4707628422,0.3952521189,0.0009
 626967\C,0,35.7456719645,-0.9991513355,0.0009859138\C,0,37.0571599186,
 -1.4744235727,0.0010547075\H,0,37.2883009785,-2.5284955364,0.001066926
 9\C,0,38.0391067314,-0.4961081669,0.0010958667\N,0,39.4366925132,-0.57
 38415993,0.0011464567\C,0,40.2383935075,-1.7203233749,0.0011704048\O,0
 ,39.7419571694,-2.8342790815,0.0011845295\C,0,41.3199307809,0.99025774
 87,0.001213289\C,0,42.1835192022,-0.1284035374,0.0012429207\C,0,43.597
 7714253,0.0818863862,0.0012830308\C,0,29.6039162584,2.2801420466,0.000
 7198256\H,0,28.9135064308,3.1151022039,0.0006980814\C,0,30.9643984285,
 2.4733822035,0.0007588239\H,0,31.3899150394,3.4698076514,0.0007642188\
 C,0,31.8531685984,1.3803740384,0.0007774725\C,0,33.2824502703,1.636145
 9959,0.0007836065\O,0,33.8105095244,2.7400257558,0.0009350275\N,0,34.0
 780294142,0.4744314125,0.0008682214\C,0,33.6090730584,-0.8412033444,0.
 00086708\N,0,34.5759978076,-1.7307059581,0.0009281753\C,0,32.195408807
 5,-1.0723998854,0.0008020675\C,0,31.658050823,-2.3735292333,0.00079116
 59\H,0,32.3458607214,-3.210693335,0.0008223692\C,0,30.2967535045,-2.56
 34255783,0.0007402422\H,0,29.8670690122,-3.5580122009,0.0007252846\C,0
 ,29.4136793237,-1.4692570129,0.0007033008\C,0,27.6518168261,0.74499235
 93,0.0006526289\N,0,26.6910370619,1.6320025748,0.000633708\C,0,25.5128
 609051,0.903070349,0.0005928942\C,0,24.2046058156,1.3848614269,0.00054
 82386\H,0,23.9729038431,2.4388532004,0.000536919\C,0,23.2162904882,0.4
 123667506,0.0005134324\C,0,23.4882616303,-0.9814793204,0.0005245157\C,
 0,24.7985362122,-1.4625731514,0.0005684642\H,0,25.0273421511,-2.517232
 3572,0.0005721289\C,0,25.7841965369,-0.4896001198,0.0005997555\N,0,27.
 1807561162,-0.5726238333,0.0006350881\C,0,27.9763409194,-1.7262724756,
 0.000637411\O,0,27.4655826205,-2.8357829543,0.0006811359\C,0,29.069365
 0068,0.9793220778,0.0006957817\C,0,29.9259000537,-0.1459306891,0.00072
 14037\C,0,31.3423423485,0.0559148803,0.0007675428\C,0,17.3483564647,2.
 321074813,0.0003002853\H,0,16.6677708575,3.1633915922,0.0002700745\C,0
 ,18.7036526186,2.4970963901,0.0003493696\H,0,19.1333271047,3.492684062
 2,0.0003578266\C,0,19.6017985046,1.4055820546,0.0003780488\C,0,21.0233
 267045,1.6621333564,0.0004079753\O,0,21.5586433195,2.7626665496,0.0004
 845048\N,0,21.8236692332,0.4950181487,0.0004545633\C,0,21.3540226571,-
 0.8167780756,0.0004415568\N,0,22.3136476637,-1.7088877324,0.0004813598
 \C,0,19.9330618408,-1.0474227976,0.0003904223\C,0,19.4000154083,-2.341
 5955342,0.0003729975\H,0,20.0904787173,-3.1771576343,0.0003977434\C,0,
 18.0364107405,-2.5373540476,0.0003267893\H,0,17.605094108,-3.530596491
 5,0.0003146608\C,0,17.1627545707,-1.4391683102,0.0002983053\C,0,15.416
 3006015,0.7698726551,0.00021863\N,0,14.4089526961,1.6551929553,0.00015
 63715\C,0,13.2740262526,0.9443735637,0.0001015387\C,0,11.9396488435,1.
 4251896698,0.0000212357\H,0,11.70990126,2.4793503569,-0.0000030042\C,0
 ,10.9710399161,0.459159271,-0.0000311958\C,0,11.2372658183,-0.95768073
 1,-0.0000073885\C,0,12.5716421385,-1.4384982074,0.0000733022\H,0,12.80
 13901636,-2.4926587562,0.0000950652\C,0,13.5402523841,-0.4724685993,0.
 0001225875\N,0,14.9351882317,-0.5506878957,0.0002046491\C,0,15.7163765
 477,-1.6984319,0.0002559292\O,0,15.2107265866,-2.8119902227,0.00019997
 9\C,0,16.7929571296,1.0130350913,0.0002812747\C,0,17.6693167265,-0.122
 5557318,0.0003152887\C,0,19.0838050398,0.0832999231,0.0003624789\C,0,5
 .1112742601,2.3282892198,-0.0004504362\H,0,4.4208149171,3.1638548603,-
 0.0005256535\C,0,6.4748835148,2.5240451159,-0.0003479897\H,0,6.9062006
 213,3.5172876673,-0.000335288\C,0,7.348533437,1.4258613736,-0.00027618
 9\C,0,8.7949173552,1.6851222589,-0.000192873\O,0,9.3005622764,2.798681
 2127,-0.0001379731\N,0,9.5761027603,0.5373803267,-0.0001280651\C,0,9.0
 949899988,-0.783183427,-0.0001501117\N,0,10.102334148,-1.6684992469,-0
 .0000649893\C,0,7.7183275803,-1.0263444248,-0.0002374203\C,0,7.1629263
 47,-2.3343792502,-0.0002654897\H,0,7.8435084732,-3.1766994925,-0.00021
 40195\C,0,5.8076257312,-2.5103985266,-0.0003450659\H,0,5.3779512282,-3
 .5059863191,-0.0003511904\C,0,4.9094852127,-1.4188854839,-0.0003990828
 \C,0,3.1572624855,0.8034793931,-0.0006206348\N,0,2.1976430667,1.695590
 2551,-0.0007788342\N,0,2.6876128108,-0.50831711,-0.0006219903\C,0,3.48
 79512856,-1.675432124,-0.0004430597\O,0,2.9526366015,-2.7759643727,-0.
 0006837453\C,0,4.5782271011,1.0341217947,-0.0004700173\C,0,5.427482377
 4,-0.0966043477,-0.0003870863\C,0,6.8419688665,0.1092478375,-0.0002979
 174\C,0,47.9955537599,-0.9387475056,0.0013623414\C,0,49.3289783679,-1.
 3594575641,0.0013761443\C,0,50.3251792956,-0.3957358238,0.0013909223\C
 ,0,50.0179040387,0.9723604625,0.001394137\C,0,48.7004974166,1.41559838
 58,0.0013818207\C,0,47.7088721965,0.4432224317,0.0013646342\H,0,49.558
 1703925,-2.4191245634,0.001373271\H,0,51.3663201091,-0.7047861254,0.00
 14003449\H,0,50.8224593631,1.700534377,0.0014050852\H,0,48.4339918474,
 2.4627298965,0.0013826998\C,0,1.2949903216,-0.4256604551,-0.0008430865
 \C,0,0.3066706741,-1.3981505696,-0.0009577541\C,0,1.0230240677,0.96818
 57802,-0.0009274938\C,0,-1.0015827164,-0.9163533665,-0.0011759711\C,0,
 -0.2872467242,1.4492870634,-0.0011433959\H,0,0.5383648019,-2.452144190
 3,-0.0008828019\C,0,-1.2729117461,0.4763185012,-0.0012638201\N,0,-2.17
 97618067,-1.6452794187,-0.0013321331\C,0,-3.1405376972,-0.7582637393,-
 0.0015089042\C,0,-5.0926464977,-2.2934013916,-0.0017384381\N,0,-2.6694
 703316,0.5593486246,-0.0014921526\C,0,-4.558087568,-0.992584953,-0.001
 7061789\C,0,-3.4650485763,1.7130040976,-0.0016724181\C,0,-6.4531304863
 ,-2.4866327665,-0.001916948\C,0,-5.4146145957,0.1326738031,-0.00185412
 58\O,0,-2.9542799171,2.8225097805,-0.0015409181\H,0,-0.5160475657,2.50
 39474608,-0.0012175418\C,0,-4.9023866269,1.4559974536,-0.0018268812\H,
 0,-4.4022418108,-3.1283659149,-0.0016178552\C,0,-7.3418923643,-1.39361
 94108,-0.0020665247\C,0,-6.8310586596,-0.0691633265,-0.0020339271\C,0,
 -5.7854550081,2.5501710854,-0.0019662335\C,0,-8.7711774708,-1.64938250
 82,-0.0022511725\O,0,-9.2992414889,-2.7532592707,-0.0022860478\H,0,-6.
 8786531327,-3.4830557066,-0.0019451522\C,0,-7.6841184853,1.0591565471,
 -0.0021753677\C,0,-7.1467529194,2.3602827408,-0.0021370977\C,0,-9.0977
 844188,0.8279688655,-0.0023573278\N,0,-9.5667487933,-0.4876640461,-0.0
 023860129\C,0,-10.959481872,-0.4084757872,-0.0025759722\C,0,-11.941979
 0968,-1.3843169369,-0.0026827136\H,0,-5.3557648518,3.5447552224,-0.001
 9435368\N,0,-10.0647028645,1.7174770302,-0.0025146073\C,0,-11.23438269
 09,0.9859289501,-0.0026539435\C,0,-13.2517434949,-0.9064233995,-0.0028
 794776\C,0,-12.5458662701,1.4612112635,-0.0028508107\H,0,-7.8345586941
 ,3.1974501265,-0.0022510919\H,0,-11.7058669031,-2.4373529534,-0.002620
 1971\C,0,-13.5278209135,0.4829027317,-0.0029597158\N,0,-14.4291573632,
 -1.6407657867,-0.0030236584\C,0,-15.3904146959,-0.7594766277,-0.003185
 2519\C,0,-17.3314842228,-2.3071465798,-0.0034061605\N,0,-14.9254051276
 ,0.5606443325,-0.0031636394\C,0,-16.8086559034,-1.0034392826,-0.003374
 4344\C,0,-15.7270995962,1.7071336115,-0.0033190523\C,0,-18.6902377317,
 -2.5114741285,-0.0035858749\C,0,-17.6722379332,0.1152274525,-0.0035245
 287\O,0,-15.2306511704,2.8210834942,-0.0032502287\H,0,-12.7769988004,2
 .5152850492,-0.0029164325\C,0,-17.1664197574,1.4410382094,-0.003495093
 4\H,0,-16.6337672932,-3.1359247637,-0.0032861936\C,0,-19.5872232723,-1
 .4237757254,-0.003740741\C,0,-19.0864914934,-0.0950531672,-0.003708856
 8\C,0,-18.0523796076,2.5308791057,-0.00364204\C,0,-21.0098188881,-1.68
 80732245,-0.0039346744\O,0,-21.5433489343,-2.7913657068,-0.003945465\H
 ,0,-19.1075554727,-3.5112246866,-0.0036154112\C,0,-19.9446750967,1.030
 987783,-0.0038536507\C,0,-19.4126427089,2.3361343386,-0.0038168213\C,0
 ,-21.3512576948,0.7918680473,-0.004030982\N,0,-21.8097647402,-0.526424
 7661,-0.0040601914\C,0,-23.1975890621,-0.4563515153,-0.00423778\C,0,-2
 4.1892317522,-1.4287291886,-0.004342163\H,0,-17.625680942,3.5267247558
 ,-0.0036143598\N,0,-22.3343203509,1.6746173556,-0.0041789554\C,0,-23.4
 842693291,0.925592997,-0.0043067259\C,0,-25.5066183272,-0.9855067522,-
 0.0045205738\C,0,-24.8177111187,1.3463167449,-0.0044871422\H,0,-20.102
 89731,3.1711802143,-0.0039309622\H,0,-23.9227042197,-2.4758595204,-0.0
 042843511\C,0,-25.81390208,0.3826007364,-0.0045918621\H,0,-25.04684569
 69,2.4059962787,-0.0045415367\H,0,-26.3111684951,-1.7136182389,-0.0046
 073117\H,0,-26.8550201486,0.691710352,-0.0047327879\\Version=ES64L-G16
 RevC.01\State=5-A\HF=-7043.3783269\S2=6.113855\S2-1=0.\S2A=6.00565\RMS
 D=5.983e-10\Dipole=-0.0010685,0.0000146,-0.0001466\Quadrupole=-7002.78
 95699,3443.9457547,3558.8438152,-26.7119275,-0.819919,-0.0017617\PG=C0
 1 [X(C126H42N24O12)]\\@
 The archive entry for this job was punched.


 WHEN A MATHEMATICIAN ENGAGED IN INVESTIGATING
 PHYSICAL ACTIONS AND RESULTS HAS ARRIVED AT HIS
 CONCLUSIONS, MAY THEY NOT BE EXPRESSED IN COMMON
 LANGUAGE AS FULLY, CLEARLY, AND DEFINITELY AS IN
 MATHEMATICAL FORMULAE?
           - LETTER FROM M. FARADAY TO J.C. MAXWELL, 1857.
 Job cpu time:       2 days 18 hours  7 minutes 24.3 seconds.
 Elapsed time:       0 days  2 hours  6 minutes 19.0 seconds.
 File lengths (MBytes):  RWF=  56416 Int=      0 D2E=      0 Chk=   2328 Scr=     16
 Normal termination of Gaussian 16 at Sat Apr 13 09:28:11 2024.
