 Entering Gaussian System, Link 0=g16
 Input=step2.gjf
 Output=step2.log
 Initial command:
 /apps/gaussian/g16-c01-avx2/g16/l1.exe "/rds/general/ephemeral/user/ns5018/ephemeral/0012/002/Gau-1362181.inp" -scrdir="/rds/general/ephemeral/user/ns5018/ephemeral/0012/002/"
 Entering Link 1 = /apps/gaussian/g16-c01-avx2/g16/l1.exe PID=   1362182.
  
 Copyright (c) 1988-2019, Gaussian, Inc.  All Rights Reserved.
  
 This is part of the Gaussian(R) 16 program.  It is based on
 the Gaussian(R) 09 system (copyright 2009, Gaussian, Inc.),
 the Gaussian(R) 03 system (copyright 2003, Gaussian, Inc.),
 the Gaussian(R) 98 system (copyright 1998, Gaussian, Inc.),
 the Gaussian(R) 94 system (copyright 1995, Gaussian, Inc.),
 the Gaussian 92(TM) system (copyright 1992, Gaussian, Inc.),
 the Gaussian 90(TM) system (copyright 1990, Gaussian, Inc.),
 the Gaussian 88(TM) system (copyright 1988, Gaussian, Inc.),
 the Gaussian 86(TM) system (copyright 1986, Carnegie Mellon
 University), and the Gaussian 82(TM) system (copyright 1983,
 Carnegie Mellon University). Gaussian is a federally registered
 trademark of Gaussian, Inc.
  
 This software contains proprietary and confidential information,
 including trade secrets, belonging to Gaussian, Inc.
  
 This software is provided under written license and may be
 used, copied, transmitted, or stored only in accord with that
 written license.
  
 The following legend is applicable only to US Government
 contracts under FAR:
  
                    RESTRICTED RIGHTS LEGEND
  
 Use, reproduction and disclosure by the US Government is
 subject to restrictions as set forth in subparagraphs (a)
 and (c) of the Commercial Computer Software - Restricted
 Rights clause in FAR 52.227-19.
  
 Gaussian, Inc.
 340 Quinnipiac St., Bldg. 40, Wallingford CT 06492
  
  
 ---------------------------------------------------------------
 Warning -- This program may not be used in any manner that
 competes with the business of Gaussian, Inc. or will provide
 assistance to any competitor of Gaussian, Inc.  The licensee
 of this program is prohibited from giving any competitor of
 Gaussian, Inc. access to this program.  By using this program,
 the user acknowledges that Gaussian, Inc. is engaged in the
 business of creating and licensing software in the field of
 computational chemistry and represents and warrants to the
 licensee that it is not a competitor of Gaussian, Inc. and that
 it will not use this program in any manner prohibited above.
 ---------------------------------------------------------------
  

 Cite this work as:
 Gaussian 16, Revision C.01,
 M. J. Frisch, G. W. Trucks, H. B. Schlegel, G. E. Scuseria, 
 M. A. Robb, J. R. Cheeseman, G. Scalmani, V. Barone, 
 G. A. Petersson, H. Nakatsuji, X. Li, M. Caricato, A. V. Marenich, 
 J. Bloino, B. G. Janesko, R. Gomperts, B. Mennucci, H. P. Hratchian, 
 J. V. Ortiz, A. F. Izmaylov, J. L. Sonnenberg, D. Williams-Young, 
 F. Ding, F. Lipparini, F. Egidi, J. Goings, B. Peng, A. Petrone, 
 T. Henderson, D. Ranasinghe, V. G. Zakrzewski, J. Gao, N. Rega, 
 G. Zheng, W. Liang, M. Hada, M. Ehara, K. Toyota, R. Fukuda, 
 J. Hasegawa, M. Ishida, T. Nakajima, Y. Honda, O. Kitao, H. Nakai, 
 T. Vreven, K. Throssell, J. A. Montgomery, Jr., J. E. Peralta, 
 F. Ogliaro, M. J. Bearpark, J. J. Heyd, E. N. Brothers, K. N. Kudin, 
 V. N. Staroverov, T. A. Keith, R. Kobayashi, J. Normand, 
 K. Raghavachari, A. P. Rendell, J. C. Burant, S. S. Iyengar, 
 J. Tomasi, M. Cossi, J. M. Millam, M. Klene, C. Adamo, R. Cammi, 
 J. W. Ochterski, R. L. Martin, K. Morokuma, O. Farkas, 
 J. B. Foresman, and D. J. Fox, Gaussian, Inc., Wallingford CT, 2019.
 
 ******************************************
 Gaussian 16:  ES64L-G16RevC.01  3-Jul-2019
                21-Jan-2024 
 ******************************************
 %mem=200GB
 %nprocshared=32
 Will use up to   32 processors via shared memory.
 %Chk=checkpoint.chk
 ----------------------------------------------------
 #p wB97XD/6-311(d,p) Geom=AllCheck guess=read stable
 ----------------------------------------------------
 1/29=7,38=1,172=1/1;
 2/12=2,40=1/2;
 3/5=4,6=6,7=101,11=2,14=-4,25=1,30=1,74=-58,116=-2/1,2,3;
 4/5=1/1;
 5/5=2,38=6/2;
 8/6=1,10=90,11=11/1;
 9/8=-1,42=1/14;
 6/7=2,8=2,9=2,10=2,28=1/1;
 99/5=1,9=1/99;
 Leave Link    1 at Sun Jan 21 16:17:34 2024, MaxMem= 26843545600 cpu:               7.4 elap:               0.2
 (Enter /apps/gaussian/g16-c01-avx2/g16/l101.exe)
 Structure from the checkpoint file:  "checkpoint.chk"
 ---
 002
 ---
 Charge = -6 Multiplicity = 1
 Redundant internal coordinates found in file.  (old form).
 C,0,6.5911103155,-1.0701693101,-0.0009638497
 H,0,7.1080231638,-0.1184185167,-0.00126214
 C,0,5.2166656822,-1.1399105084,-0.0010825857
 H,0,4.607878654,-0.2437482556,-0.0014756033
 C,0,4.5594270085,-2.3815927499,-0.0006921473
 C,0,3.1005439249,-2.4052977827,-0.000826793
 O,0,2.374947336,-1.4234200913,-0.0013200387
 N,0,2.5458494897,-3.6965907273,-0.0004380572
 C,0,3.2648933593,-4.8993739279,0.000077846
 N,0,2.4842512674,-5.9582195769,0.0003655291
 C,0,4.6892097162,-4.8540842758,0.0002269302
 C,0,5.4703393169,-6.0279575116,0.0007426047
 H,0,4.9546211039,-6.9810715202,0.001033524
 C,0,6.8397264449,-5.9619120523,0.0008688984
 H,0,7.4495762211,-6.8569416106,0.0012640764
 C,0,7.4975283877,-4.7134352036,0.0004798162
 C,0,8.9131198121,-4.6139159359,0.0005981915
 N,0,9.7991871665,-5.5913692557,0.0010600427
 C,0,11.028494844,-4.98287936,0.0009696904
 C,0,12.2914061391,-5.570264288,0.0013271457
 H,0,12.4163884533,-6.6448697627,0.0017382661
 C,0,13.3857928719,-4.708717001,0.001129521
 C,0,13.1970594184,-3.2950153161,0.0005871256
 C,0,11.9545418542,-2.6736298349,0.0002214168
 H,0,11.8300634183,-1.6034809557,-0.0001871603
 C,0,10.8877836186,-3.5635742156,0.0004301159
 N,0,9.5100077506,-3.3500229599,0.0001949156
 C,0,8.8277442077,-2.1222320825,-0.0003436311
 O,0,9.4364567956,-1.0684170812,-0.0006495659
 C,0,7.3649109465,-2.2425084742,-0.000448392
 C,0,6.7403458571,-3.5087168258,-0.0000458692
 C,0,5.3114372683,-3.5835219101,-0.0001706366
 C,0,18.1608017498,0.3652607852,-0.0003212215
 H,0,18.5476899332,1.3772119009,-0.000675757
 C,0,16.8069875025,0.1177480423,-0.0003445897
 H,0,16.0854867334,0.9255005778,-0.000713848
 C,0,16.3228705485,-1.2008235852,0.0001194969
 C,0,14.8714089518,-1.4194384771,0.0000904771
 O,0,14.0372056997,-0.5333744792,-0.0003822074
 N,0,14.489084211,-2.7709850832,0.0005352735
 C,0,15.3600640439,-3.8641938236,0.0010278937
 N,0,14.7219633381,-5.0188609828,0.0013916056
 C,0,16.7607537872,-3.6362462151,0.0010825882
 C,0,17.6874527796,-4.700439149,0.0015732077
 H,0,17.2992651088,-5.7115294705,0.0019198126
 C,0,19.0354910626,-4.450498706,0.0016043592
 H,0,19.7561306555,-5.2598624129,0.0019792759
 C,0,19.5264160806,-3.1287510534,0.0011431434
 C,0,20.9231484414,-2.8459973875,0.0011656928
 N,0,21.9258945367,-3.6974522344,0.0015926763
 C,0,23.0624236215,-2.9245332341,0.0014042425
 C,0,24.3890431725,-3.3436363959,0.0016961267
 H,0,24.6545578626,-4.3924701168,0.0021286863
 C,0,25.3520956869,-2.344402875,0.0014028141
 C,0,24.9987407435,-0.9763402012,0.0008374101
 C,0,23.6855798577,-0.519848372,0.0005327494
 H,0,23.4149072402,0.5234045764,0.0001008246
 C,0,22.7411165642,-1.5381494388,0.0008359389
 N,0,21.3470125567,-1.5103098277,0.0006899318
 C,0,20.5108252149,-0.3807649963,0.0001701013
 O,0,20.9917166331,0.741407329,-0.0001984995
 C,0,19.085385895,-0.6924488531,0.0001670075
 C,0,18.6292385882,-2.0348690302,0.0006423495
 C,0,17.2213192982,-2.2899324864,0.0006137906
 C,0,29.5852360043,3.1937618157,-0.0003100185
 H,0,29.8533940297,4.2433103737,-0.0006850156
 C,0,28.2397998982,2.790208995,-0.0002952514
 H,0,27.4403412876,3.5214617259,-0.0006618559
 C,0,27.9074645023,1.4553088789,0.0001852531
 C,0,26.464325455,1.0712840303,0.0001791058
 O,0,25.563046292,1.8765220068,-0.0002125486
 N,0,26.2306343069,-0.2994184695,0.0006950624
 C,0,27.2187810615,-1.2927648199,0.0011810637
 N,0,26.736785208,-2.4929449127,0.0015955992
 C,0,28.6192274781,-0.9103672608,0.0011752918
 C,0,29.6359846542,-1.8426716919,0.0016407102
 H,0,29.3730101373,-2.8937350029,0.0020202388
 C,0,30.9769942302,-1.4399549454,0.0016223034
 H,0,31.777614194,-2.1695060383,0.0019858799
 C,0,31.3084017101,-0.1001733284,0.0011389979
 C,0,32.683938738,0.358178719,0.0010998951
 N,0,33.7470571493,-0.3789270745,0.0014991301
 C,0,34.8255937633,0.5018224125,0.0012562721
 C,0,36.179350009,0.189101188,0.0015107315
 H,0,36.5260097168,-0.8362239088,0.0019495916
 C,0,37.0712897232,1.2632529656,0.0011722532
 C,0,36.5688440482,2.606614519,0.0005919597
 C,0,35.2215370062,2.9400003685,0.0003304099
 H,0,34.8907788408,3.9659877614,-0.0001055808
 C,0,34.369580154,1.8397920017,0.0006848419
 N,0,32.9645681645,1.7315807566,0.0005899627
 C,0,32.0174249473,2.7389763768,0.000129192
 O,0,32.305884426,3.9131004272,-0.0003151433
 C,0,30.5954203083,2.2608241934,0.0001564464
 C,0,30.2820460897,0.8788760528,0.0006561937
 C,0,28.9292423193,0.4717518895,0.0006722683
 C,0,40.5258607644,7.2965550726,-0.0008472191
 H,0,40.6808153797,8.3694035394,-0.0012491736
 C,0,39.2867295445,6.7557411013,-0.0007658626
 H,0,38.3943182234,7.3709776515,-0.0010997575
 C,0,39.1024661476,5.3315799177,-0.0002307045
 C,0,37.7692037503,4.8104783116,-0.0001699628
 O,0,36.7172062785,5.4560681708,-0.0005060197
 N,0,37.7088715496,3.3969611108,0.0003880969
 C,0,38.8041112186,2.525248935,0.000840876
 N,0,38.4298389333,1.2410776715,0.0013144553
 C,0,40.102758878,3.063816621,0.0007599398
 C,0,41.2644949528,2.2204620092,0.0012106411
 H,0,41.1069760396,1.1479789784,0.0016147838
 C,0,42.5038787783,2.7608277563,0.001127841
 H,0,43.3967522592,2.1460186795,0.0014614492
 C,0,42.6769679888,4.1860991243,0.0005891528
 C,0,43.9560811663,4.7734723954,0.0004942419
 N,0,45.1568977287,4.177699209,0.0008555788
 C,0,46.0558639925,5.1982696931,0.0005518813
 C,0,47.4585839154,5.1577534216,0.0007166316
 H,0,47.9655787251,4.1982660623,0.0011465097
 C,0,48.1624373113,6.3533209204,0.0003227867
 H,0,49.2498585132,6.3301678289,0.0004473393
 C,0,47.5051967744,7.5915308669,-0.0002319458
 H,0,48.0860434764,8.509174862,-0.0005295509
 C,0,46.1129209083,7.6615252018,-0.0004070828
 H,0,45.5682387839,8.5952954027,-0.0008302432
 C,0,45.4144785975,6.4636229577,-0.0000120542
 N,0,44.0571560691,6.1674805053,-0.0000383307
 C,0,42.9840467323,7.0842805608,-0.0005085698
 O,0,43.2288032496,8.2979650309,-0.0009571641
 C,0,41.696287925,6.4638238387,-0.0004013576
 C,0,41.5567623823,5.0525481325,0.0001339695
 C,0,40.2306088635,4.4750733611,0.000221233
 C,0,-25.3585081231,-2.1957493699,-0.0048410561
 C,0,-25.0029165926,-0.8397638619,-0.0053275054
 C,0,-24.3991048724,-3.1979086671,-0.0043175165
 C,0,-23.6638521124,-0.4521764761,-0.005266377
 C,0,-23.0431001349,-2.8366104335,-0.0042450125
 C,0,-22.7091731944,-1.4578553877,-0.0047316719
 C,0,-20.9018664554,-2.7682689463,-0.0039597989
 N,0,-21.933945609,-3.6236819522,-0.0038006288
 C,0,-20.486000879,-0.2960759793,-0.0048247547
 N,0,-21.3201118514,-1.4346460738,-0.0045269829
 C,0,-19.5221052671,-3.0464685647,-0.0036547974
 C,0,-19.026591721,-4.39399488,-0.0030798363
 O,0,-21.0027162381,0.8290665551,-0.0053157742
 C,0,-19.0902341038,-0.6044912887,-0.0045121605
 C,0,-18.6306017174,-1.9460971175,-0.0039407023
 C,0,-17.6962842172,-4.6355535621,-0.0028000739
 C,0,-18.1421117569,0.4745858219,-0.0047821833
 C,0,-17.2073254893,-2.203866969,-0.0036393916
 C,0,-16.7590605753,-3.5481311545,-0.0030715215
 C,0,-16.8119482543,0.2325286377,-0.0044983842
 H,0,-24.6723958111,-4.2481340678,-0.0039311062
 C,0,-16.305815355,-1.1113515046,-0.0039186582
 C,0,-15.3714810514,-3.7743435601,-0.0027948019
 C,0,-14.8885538631,-1.312621417,-0.0036296891
 H,0,-23.3479472248,0.5816574781,-0.0056362441
 C,0,-13.2145223755,-3.1822502034,-0.0027190866
 C,0,-6.5519655197,-1.0083343372,-0.00261824
 C,0,-11.9796587983,-2.5486132332,-0.0027818384
 N,0,-14.5054864728,-2.6745774281,-0.0030790718
 C,0,-13.3953173716,-4.6050554134,-0.0022210931
 C,0,-8.8149067164,-2.0090680478,-0.0025511528
 C,0,-5.1498281857,-1.0923999857,-0.0023981537
 O,0,-14.0127653696,-0.4428632429,-0.0038717362
 O,0,-9.3650890155,-0.9324632945,-0.0030326485
 N,0,-14.7125338688,-4.9383697045,-0.0022778503
 C,0,-7.321130961,-2.1481716385,-0.0022997575
 C,0,-10.8979823322,-3.4239796644,-0.0023143617
 C,0,-12.2807049234,-5.4458873162,-0.0017612356
 C,0,-11.0348239971,-4.8308844196,-0.0018178063
 C,0,-4.5200588594,-2.3154258171,-0.0018602338
 H,0,-19.7545673605,-5.197278648,-0.0028853957
 C,0,-6.6990202086,-3.4213428456,-0.0017452141
 C,0,-8.9173497483,-4.4792832229,-0.00165634
 N,0,-9.505626543,-3.2069161673,-0.002200837
 C,0,-3.0272983683,-2.3580651783,-0.0016406235
 C,0,-5.2888929451,-3.5071917252,-0.0015236894
 O,0,-2.3348536399,-1.3674915066,-0.0019323807
 C,0,-7.4733374349,-4.6097752848,-0.0014114999
 N,0,-9.7829682309,-5.4406611353,-0.0014237624
 H,0,-18.5391047514,1.4832540407,-0.0052177405
 C,0,-4.670004709,-4.7812966505,-0.0009721405
 C,0,-6.8433452842,-5.8377623111,-0.0008739265
 H,0,-17.2968763902,-5.6432767762,-0.0023687694
 C,0,-3.2191783002,-4.8321415048,-0.0007637855
 C,0,-5.4457075462,-5.922029044,-0.0006556311
 N,0,-2.4853239271,-3.6385613803,-0.0010974539
 H,0,-16.0845185559,1.0361209475,-0.0046931194
 H,0,-7.0537932468,-0.0483185531,-0.003040685
 H,0,-11.8931405797,-1.4741061873,-0.0031625239
 H,0,-4.5394890548,-0.1972180058,-0.0026468998
 N,0,-2.4746560441,-5.88970215,-0.0002850848
 H,0,-12.3828498971,-6.5233989518,-0.0013797362
 H,0,-7.4552001786,-6.7315585348,-0.0006273734
 H,0,-4.9485726654,-6.8847057536,-0.0002353724
 C,0,1.1953366914,-4.0435708469,-0.0004854485
 C,0,1.200719452,-5.4667037794,0.0000275893
 C,0,0.042418822,-3.2691493915,-0.0009080534
 C,0,-1.1309687631,-4.0147643669,-0.0007910233
 C,0,-1.1609889069,-5.427403589,-0.0002856422
 C,0,0.0056423012,-6.1790081925,0.0001337547
 H,0,0.0665103465,-2.1916244137,-0.0012919919
 H,0,-0.0121410285,-7.2607824527,0.0005212099
 H,0,-25.7788293017,-0.0798911407,-0.0057109071
 H,0,-26.4116083341,-2.4677891617,-0.0048847962
 Recover connectivity data from disk.
 ITRead=  0  0  0  0  0  0  0  0  0  0  0  0  0  0  0  0  0  0  0  0
 ITRead=  0  0  0  0  0  0  0  0  0  0  0  0  0  0  0  0  0  0  0  0
 ITRead=  0  0  0  0  0  0  0  0  0  0  0  0  0  0  0  0  0  0  0  0
 ITRead=  0  0  0  0  0  0  0  0  0  0  0  0  0  0  0  0  0  0  0  0
 ITRead=  0  0  0  0  0  0  0  0  0  0  0  0  0  0  0  0  0  0  0  0
 ITRead=  0  0  0  0  0  0  0  0  0  0  0  0  0  0  0  0  0  0  0  0
 ITRead=  0  0  0  0  0  0  0  0  0  0  0  0  0  0  0  0  0  0  0  0
 ITRead=  0  0  0  0  0  0  0  0  0  0  0  0  0  0  0  0  0  0  0  0
 ITRead=  0  0  0  0  0  0  0  0  0  0  0  0  0  0  0  0  0  0  0  0
 ITRead=  0  0  0  0  0  0  0  0  0  0  0  0  0  0  0  0  0  0  0  0
 ITRead=  0  0  0  0
 MicOpt= -1 -1 -1 -1 -1 -1 -1 -1 -1 -1 -1 -1 -1 -1 -1 -1 -1 -1 -1 -1
 MicOpt= -1 -1 -1 -1 -1 -1 -1 -1 -1 -1 -1 -1 -1 -1 -1 -1 -1 -1 -1 -1
 MicOpt= -1 -1 -1 -1 -1 -1 -1 -1 -1 -1 -1 -1 -1 -1 -1 -1 -1 -1 -1 -1
 MicOpt= -1 -1 -1 -1 -1 -1 -1 -1 -1 -1 -1 -1 -1 -1 -1 -1 -1 -1 -1 -1
 MicOpt= -1 -1 -1 -1 -1 -1 -1 -1 -1 -1 -1 -1 -1 -1 -1 -1 -1 -1 -1 -1
 MicOpt= -1 -1 -1 -1 -1 -1 -1 -1 -1 -1 -1 -1 -1 -1 -1 -1 -1 -1 -1 -1
 MicOpt= -1 -1 -1 -1 -1 -1 -1 -1 -1 -1 -1 -1 -1 -1 -1 -1 -1 -1 -1 -1
 MicOpt= -1 -1 -1 -1 -1 -1 -1 -1 -1 -1 -1 -1 -1 -1 -1 -1 -1 -1 -1 -1
 MicOpt= -1 -1 -1 -1 -1 -1 -1 -1 -1 -1 -1 -1 -1 -1 -1 -1 -1 -1 -1 -1
 MicOpt= -1 -1 -1 -1 -1 -1 -1 -1 -1 -1 -1 -1 -1 -1 -1 -1 -1 -1 -1 -1
 MicOpt= -1 -1 -1 -1
                           ----------------------------
                           !    Current Parameters    !
                           ! (Angstroms and Degrees)  !
 --------------------------                            --------------------------
 ! Name  Definition              Value                                          !
 --------------------------------------------------------------------------------
 ! R1    R(1,2)                  1.0831                                         !
 ! R2    R(1,3)                  1.3762                                         !
 ! R3    R(1,30)                 1.4047                                         !
 ! R4    R(3,4)                  1.0834                                         !
 ! R5    R(3,5)                  1.4049                                         !
 ! R6    R(5,6)                  1.4591                                         !
 ! R7    R(5,32)                 1.4178                                         !
 ! R8    R(6,7)                  1.2209                                         !
 ! R9    R(6,8)                  1.4054                                         !
 ! R10   R(8,9)                  1.4013                                         !
 ! R11   R(8,195)                1.3944                                         !
 ! R12   R(9,10)                 1.3155                                         !
 ! R13   R(9,11)                 1.425                                          !
 ! R14   R(10,196)               1.3744                                         !
 ! R15   R(11,12)                1.41                                           !
 ! R16   R(11,32)                1.4147                                         !
 ! R17   R(12,13)                1.0837                                         !
 ! R18   R(12,14)                1.371                                          !
 ! R19   R(14,15)                1.083                                          !
 ! R20   R(14,16)                1.4112                                         !
 ! R21   R(16,17)                1.4191                                         !
 ! R22   R(16,31)                1.4229                                         !
 ! R23   R(17,18)                1.3193                                         !
 ! R24   R(17,27)                1.3977                                         !
 ! R25   R(18,19)                1.3717                                         !
 ! R26   R(19,20)                1.3928                                         !
 ! R27   R(19,26)                1.4263                                         !
 ! R28   R(20,21)                1.0818                                         !
 ! R29   R(20,22)                1.3928                                         !
 ! R30   R(22,23)                1.4262                                         !
 ! R31   R(22,42)                1.3717                                         !
 ! R32   R(23,24)                1.3892                                         !
 ! R33   R(23,40)                1.3943                                         !
 ! R34   R(24,25)                1.0774                                         !
 ! R35   R(24,26)                1.3892                                         !
 ! R36   R(26,27)                1.3942                                         !
 ! R37   R(27,28)                1.4046                                         !
 ! R38   R(28,29)                1.217                                          !
 ! R39   R(28,30)                1.4678                                         !
 ! R40   R(30,31)                1.4119                                         !
 ! R41   R(31,32)                1.4309                                         !
 ! R42   R(33,34)                1.0834                                         !
 ! R43   R(33,35)                1.3763                                         !
 ! R44   R(33,62)                1.4049                                         !
 ! R45   R(35,36)                1.0831                                         !
 ! R46   R(35,37)                1.4046                                         !
 ! R47   R(37,38)                1.4678                                         !
 ! R48   R(37,64)                1.4119                                         !
 ! R49   R(38,39)                1.217                                          !
 ! R50   R(38,40)                1.4046                                         !
 ! R51   R(40,41)                1.3978                                         !
 ! R52   R(41,42)                1.3193                                         !
 ! R53   R(41,43)                1.4191                                         !
 ! R54   R(43,44)                1.4111                                         !
 ! R55   R(43,64)                1.4229                                         !
 ! R56   R(44,45)                1.083                                          !
 ! R57   R(44,46)                1.371                                          !
 ! R58   R(46,47)                1.0837                                         !
 ! R59   R(46,48)                1.41                                           !
 ! R60   R(48,49)                1.4251                                         !
 ! R61   R(48,63)                1.4147                                         !
 ! R62   R(49,50)                1.3155                                         !
 ! R63   R(49,59)                1.4013                                         !
 ! R64   R(50,51)                1.3744                                         !
 ! R65   R(51,52)                1.3912                                         !
 ! R66   R(51,58)                1.4231                                         !
 ! R67   R(52,53)                1.0819                                         !
 ! R68   R(52,54)                1.3878                                         !
 ! R69   R(54,55)                1.413                                          !
 ! R70   R(54,74)                1.3926                                         !
 ! R71   R(55,56)                1.3902                                         !
 ! R72   R(55,72)                1.4056                                         !
 ! R73   R(56,57)                1.0778                                         !
 ! R74   R(56,58)                1.3889                                         !
 ! R75   R(58,59)                1.3944                                         !
 ! R76   R(59,60)                1.4054                                         !
 ! R77   R(60,61)                1.2209                                         !
 ! R78   R(60,62)                1.4591                                         !
 ! R79   R(62,63)                1.4178                                         !
 ! R80   R(63,64)                1.4308                                         !
 ! R81   R(65,66)                1.0833                                         !
 ! R82   R(65,67)                1.4047                                         !
 ! R83   R(65,94)                1.3751                                         !
 ! R84   R(67,68)                1.0835                                         !
 ! R85   R(67,69)                1.3756                                         !
 ! R86   R(69,70)                1.4934                                         !
 ! R87   R(69,96)                1.4182                                         !
 ! R88   R(70,71)                1.2086                                         !
 ! R89   R(70,72)                1.3905                                         !
 ! R90   R(72,73)                1.4011                                         !
 ! R91   R(73,74)                1.2933                                         !
 ! R92   R(73,75)                1.4517                                         !
 ! R93   R(75,76)                1.3795                                         !
 ! R94   R(75,96)                1.4165                                         !
 ! R95   R(76,77)                1.0835                                         !
 ! R96   R(76,78)                1.4002                                         !
 ! R97   R(78,79)                1.0832                                         !
 ! R98   R(78,80)                1.3802                                         !
 ! R99   R(80,81)                1.4499                                         !
 ! R100  R(80,95)                1.4184                                         !
 ! R101  R(81,82)                1.2937                                         !
 ! R102  R(81,91)                1.4018                                         !
 ! R103  R(82,83)                1.3925                                         !
 ! R104  R(83,84)                1.3894                                         !
 ! R105  R(83,90)                1.4135                                         !
 ! R106  R(84,85)                1.0823                                         !
 ! R107  R(84,86)                1.3962                                         !
 ! R108  R(86,87)                1.4342                                         !
 ! R109  R(86,106)               1.3587                                         !
 ! R110  R(87,88)                1.3879                                         !
 ! R111  R(87,104)               1.3872                                         !
 ! R112  R(88,89)                1.078                                          !
 ! R113  R(88,90)                1.3915                                         !
 ! R114  R(90,91)                1.4092                                         !
 ! R115  R(91,92)                1.3827                                         !
 ! R116  R(92,93)                1.209                                          !
 ! R117  R(92,94)                1.5002                                         !
 ! R118  R(94,95)                1.417                                          !
 ! R119  R(95,96)                1.4127                                         !
 ! R120  R(97,98)                1.084                                          !
 ! R121  R(97,99)                1.352                                          !
 ! R122  R(97,128)               1.4364                                         !
 ! R123  R(99,100)               1.0839                                         !
 ! R124  R(99,101)               1.436                                          !
 ! R125  R(101,102)              1.4315                                         !
 ! R126  R(101,130)              1.4164                                         !
 ! R127  R(102,103)              1.2343                                         !
 ! R128  R(102,104)              1.4148                                         !
 ! R129  R(104,105)              1.3998                                         !
 ! R130  R(105,106)              1.3376                                         !
 ! R131  R(105,107)              1.4059                                         !
 ! R132  R(107,108)              1.4356                                         !
 ! R133  R(107,130)              1.417                                          !
 ! R134  R(108,109)              1.084                                          !
 ! R135  R(108,110)              1.3521                                         !
 ! R136  R(110,111)              1.0841                                         !
 ! R137  R(110,112)              1.4357                                         !
 ! R138  R(112,113)              1.4075                                         !
 ! R139  R(112,129)              1.4162                                         !
 ! R140  R(113,114)              1.3405                                         !
 ! R141  R(113,125)              1.3977                                         !
 ! R142  R(114,115)              1.36                                           !
 ! R143  R(115,116)              1.4033                                         !
 ! R144  R(115,124)              1.4186                                         !
 ! R145  R(116,117)              1.0852                                         !
 ! R146  R(116,118)              1.3874                                         !
 ! R147  R(118,119)              1.0877                                         !
 ! R148  R(118,120)              1.4018                                         !
 ! R149  R(120,121)              1.086                                          !
 ! R150  R(120,122)              1.394                                          !
 ! R151  R(122,123)              1.081                                          !
 ! R152  R(122,124)              1.3866                                         !
 ! R153  R(124,125)              1.3893                                         !
 ! R154  R(125,126)              1.4114                                         !
 ! R155  R(126,127)              1.2381                                         !
 ! R156  R(126,128)              1.4294                                         !
 ! R157  R(128,129)              1.4182                                         !
 ! R158  R(129,130)              1.4464                                         !
 ! R159  R(131,132)              1.4018                                         !
 ! R160  R(131,133)              1.3874                                         !
 ! R161  R(131,204)              1.0877                                         !
 ! R162  R(132,134)              1.394                                          !
 ! R163  R(132,203)              1.086                                          !
 ! R164  R(133,135)              1.4033                                         !
 ! R165  R(133,151)              1.0852                                         !
 ! R166  R(134,136)              1.3867                                         !
 ! R167  R(134,155)              1.081                                          !
 ! R168  R(135,136)              1.4186                                         !
 ! R169  R(135,138)              1.36                                           !
 ! R170  R(136,140)              1.3893                                         !
 ! R171  R(137,138)              1.3405                                         !
 ! R172  R(137,140)              1.3977                                         !
 ! R173  R(137,141)              1.4075                                         !
 ! R174  R(139,140)              1.4114                                         !
 ! R175  R(139,143)              1.2381                                         !
 ! R176  R(139,144)              1.4294                                         !
 ! R177  R(141,142)              1.4357                                         !
 ! R178  R(141,145)              1.4162                                         !
 ! R179  R(142,146)              1.3521                                         !
 ! R180  R(142,171)              1.0841                                         !
 ! R181  R(144,145)              1.4182                                         !
 ! R182  R(144,147)              1.4364                                         !
 ! R183  R(145,148)              1.4464                                         !
 ! R184  R(146,149)              1.4356                                         !
 ! R185  R(146,183)              1.084                                          !
 ! R186  R(147,150)              1.352                                          !
 ! R187  R(147,180)              1.084                                          !
 ! R188  R(148,149)              1.417                                          !
 ! R189  R(148,152)              1.4164                                         !
 ! R190  R(149,153)              1.4059                                         !
 ! R191  R(150,152)              1.436                                          !
 ! R192  R(150,187)              1.0839                                         !
 ! R193  R(152,154)              1.4315                                         !
 ! R194  R(153,159)              1.3998                                         !
 ! R195  R(153,165)              1.3376                                         !
 ! R196  R(154,159)              1.4148                                         !
 ! R197  R(154,163)              1.2343                                         !
 ! R198  R(156,158)              1.3879                                         !
 ! R199  R(156,159)              1.3872                                         !
 ! R200  R(156,160)              1.4342                                         !
 ! R201  R(157,162)              1.4047                                         !
 ! R202  R(157,166)              1.3751                                         !
 ! R203  R(157,188)              1.0833                                         !
 ! R204  R(158,167)              1.3915                                         !
 ! R205  R(158,189)              1.078                                          !
 ! R206  R(160,165)              1.3587                                         !
 ! R207  R(160,168)              1.3962                                         !
 ! R208  R(161,164)              1.209                                          !
 ! R209  R(161,166)              1.5002                                         !
 ! R210  R(161,174)              1.3827                                         !
 ! R211  R(162,170)              1.3756                                         !
 ! R212  R(162,190)              1.0835                                         !
 ! R213  R(166,172)              1.417                                          !
 ! R214  R(167,169)              1.4135                                         !
 ! R215  R(167,174)              1.4092                                         !
 ! R216  R(168,169)              1.3894                                         !
 ! R217  R(168,192)              1.0823                                         !
 ! R218  R(169,179)              1.3925                                         !
 ! R219  R(170,175)              1.4934                                         !
 ! R220  R(170,176)              1.4182                                         !
 ! R221  R(172,176)              1.4127                                         !
 ! R222  R(172,178)              1.4184                                         !
 ! R223  R(173,174)              1.4018                                         !
 ! R224  R(173,178)              1.4499                                         !
 ! R225  R(173,179)              1.2937                                         !
 ! R226  R(175,177)              1.2086                                         !
 ! R227  R(175,186)              1.3905                                         !
 ! R228  R(176,181)              1.4165                                         !
 ! R229  R(178,182)              1.3802                                         !
 ! R230  R(181,184)              1.4517                                         !
 ! R231  R(181,185)              1.3795                                         !
 ! R232  R(182,185)              1.4002                                         !
 ! R233  R(182,193)              1.0832                                         !
 ! R234  R(184,186)              1.4011                                         !
 ! R235  R(184,191)              1.2933                                         !
 ! R236  R(185,194)              1.0835                                         !
 ! R237  R(186,198)              1.4056                                         !
 ! R238  R(191,199)              1.3926                                         !
 ! R239  R(195,196)              1.4231                                         !
 ! R240  R(195,197)              1.3889                                         !
 ! R241  R(196,200)              1.3913                                         !
 ! R242  R(197,198)              1.3902                                         !
 ! R243  R(197,201)              1.0778                                         !
 ! R244  R(198,199)              1.413                                          !
 ! R245  R(199,200)              1.3878                                         !
 ! R246  R(200,202)              1.0819                                         !
 ! A1    A(2,1,3)              121.4119                                         !
 ! A2    A(2,1,30)             118.0661                                         !
 ! A3    A(3,1,30)             120.522                                          !
 ! A4    A(1,3,4)              121.2845                                         !
 ! A5    A(1,3,5)              120.7976                                         !
 ! A6    A(4,3,5)              117.9178                                         !
 ! A7    A(3,5,6)              118.8238                                         !
 ! A8    A(3,5,32)             120.0742                                         !
 ! A9    A(6,5,32)             121.1021                                         !
 ! A10   A(5,6,7)              125.5331                                         !
 ! A11   A(5,6,8)              114.1776                                         !
 ! A12   A(7,6,8)              120.2893                                         !
 ! A13   A(6,8,9)              125.8816                                         !
 ! A14   A(6,8,195)            127.6557                                         !
 ! A15   A(9,8,195)            106.4626                                         !
 ! A16   A(8,9,10)             112.7285                                         !
 ! A17   A(8,9,11)             119.0504                                         !
 ! A18   A(10,9,11)            128.221                                          !
 ! A19   A(9,10,196)           105.4459                                         !
 ! A20   A(9,11,12)            121.8197                                         !
 ! A21   A(9,11,32)            117.9134                                         !
 ! A22   A(12,11,32)           120.2668                                         !
 ! A23   A(11,12,13)           117.9418                                         !
 ! A24   A(11,12,14)           120.8797                                         !
 ! A25   A(13,12,14)           121.1785                                         !
 ! A26   A(12,14,15)           121.5083                                         !
 ! A27   A(12,14,16)           120.5452                                         !
 ! A28   A(15,14,16)           117.9465                                         !
 ! A29   A(14,16,17)           121.8054                                         !
 ! A30   A(14,16,31)           120.0661                                         !
 ! A31   A(17,16,31)           118.1285                                         !
 ! A32   A(16,17,18)           128.1711                                         !
 ! A33   A(16,17,27)           119.301                                          !
 ! A34   A(18,17,27)           112.5279                                         !
 ! A35   A(17,18,19)           105.8577                                         !
 ! A36   A(18,19,20)           128.7219                                         !
 ! A37   A(18,19,26)           110.6729                                         !
 ! A38   A(20,19,26)           120.6052                                         !
 ! A39   A(19,20,21)           121.5773                                         !
 ! A40   A(19,20,22)           116.8454                                         !
 ! A41   A(21,20,22)           121.5773                                         !
 ! A42   A(20,22,23)           120.6071                                         !
 ! A43   A(20,22,42)           128.7209                                         !
 ! A44   A(23,22,42)           110.672                                          !
 ! A45   A(22,23,24)           124.1739                                         !
 ! A46   A(22,23,40)           104.4727                                         !
 ! A47   A(24,23,40)           131.3534                                         !
 ! A48   A(23,24,25)           123.2045                                         !
 ! A49   A(23,24,26)           113.5937                                         !
 ! A50   A(25,24,26)           123.2018                                         !
 ! A51   A(19,26,24)           124.1747                                         !
 ! A52   A(19,26,27)           104.4724                                         !
 ! A53   A(24,26,27)           131.3528                                         !
 ! A54   A(17,27,26)           106.469                                          !
 ! A55   A(17,27,28)           125.6602                                         !
 ! A56   A(26,27,28)           127.8708                                         !
 ! A57   A(27,28,29)           120.9279                                         !
 ! A58   A(27,28,30)           114.3598                                         !
 ! A59   A(29,28,30)           124.7123                                         !
 ! A60   A(1,30,28)            118.7264                                         !
 ! A61   A(1,30,31)            120.3182                                         !
 ! A62   A(28,30,31)           120.9555                                         !
 ! A63   A(16,31,30)           121.595                                          !
 ! A64   A(16,31,32)           119.1532                                         !
 ! A65   A(30,31,32)           119.2519                                         !
 ! A66   A(5,32,11)            121.8749                                         !
 ! A67   A(5,32,31)            119.0362                                         !
 ! A68   A(11,32,31)           119.089                                          !
 ! A69   A(34,33,35)           121.2835                                         !
 ! A70   A(34,33,62)           117.9193                                         !
 ! A71   A(35,33,62)           120.7972                                         !
 ! A72   A(33,35,36)           121.4111                                         !
 ! A73   A(33,35,37)           120.5216                                         !
 ! A74   A(36,35,37)           118.0673                                         !
 ! A75   A(35,37,38)           118.7262                                         !
 ! A76   A(35,37,64)           120.3186                                         !
 ! A77   A(38,37,64)           120.9552                                         !
 ! A78   A(37,38,39)           124.7079                                         !
 ! A79   A(37,38,40)           114.3605                                         !
 ! A80   A(39,38,40)           120.9317                                         !
 ! A81   A(23,40,38)           127.872                                          !
 ! A82   A(23,40,41)           106.4681                                         !
 ! A83   A(38,40,41)           125.6599                                         !
 ! A84   A(40,41,42)           112.5288                                         !
 ! A85   A(40,41,43)           119.3017                                         !
 ! A86   A(42,41,43)           128.1695                                         !
 ! A87   A(22,42,41)           105.8585                                         !
 ! A88   A(41,43,44)           121.8061                                         !
 ! A89   A(41,43,64)           118.1288                                         !
 ! A90   A(44,43,64)           120.0652                                         !
 ! A91   A(43,44,45)           117.9474                                         !
 ! A92   A(43,44,46)           120.5454                                         !
 ! A93   A(45,44,46)           121.5072                                         !
 ! A94   A(44,46,47)           121.1772                                         !
 ! A95   A(44,46,48)           120.88                                           !
 ! A96   A(47,46,48)           117.9428                                         !
 ! A97   A(46,48,49)           121.8203                                         !
 ! A98   A(46,48,63)           120.2661                                         !
 ! A99   A(49,48,63)           117.9136                                         !
 ! A100  A(48,49,50)           128.2204                                         !
 ! A101  A(48,49,59)           119.0505                                         !
 ! A102  A(50,49,59)           112.7292                                         !
 ! A103  A(49,50,51)           105.4462                                         !
 ! A104  A(50,51,52)           128.2493                                         !
 ! A105  A(50,51,58)           111.17                                           !
 ! A106  A(52,51,58)           120.5807                                         !
 ! A107  A(51,52,53)           121.7384                                         !
 ! A108  A(51,52,54)           116.4114                                         !
 ! A109  A(53,52,54)           121.8502                                         !
 ! A110  A(52,54,55)           121.574                                          !
 ! A111  A(52,54,74)           127.8207                                         !
 ! A112  A(55,54,74)           110.6053                                         !
 ! A113  A(54,55,56)           123.6512                                         !
 ! A114  A(54,55,72)           104.3063                                         !
 ! A115  A(56,55,72)           132.0424                                         !
 ! A116  A(55,56,57)           123.7136                                         !
 ! A117  A(55,56,58)           113.6767                                         !
 ! A118  A(57,56,58)           122.6097                                         !
 ! A119  A(51,58,56)           124.106                                          !
 ! A120  A(51,58,59)           104.1925                                         !
 ! A121  A(56,58,59)           131.7016                                         !
 ! A122  A(49,59,58)           106.4622                                         !
 ! A123  A(49,59,60)           125.8817                                         !
 ! A124  A(58,59,60)           127.6561                                         !
 ! A125  A(59,60,61)           120.2911                                         !
 ! A126  A(59,60,62)           114.178                                          !
 ! A127  A(61,60,62)           125.5309                                         !
 ! A128  A(33,62,60)           118.8239                                         !
 ! A129  A(33,62,63)           120.0746                                         !
 ! A130  A(60,62,63)           121.1016                                         !
 ! A131  A(48,63,62)           121.8747                                         !
 ! A132  A(48,63,64)           119.0893                                         !
 ! A133  A(62,63,64)           119.036                                          !
 ! A134  A(37,64,43)           121.5939                                         !
 ! A135  A(37,64,63)           119.252                                          !
 ! A136  A(43,64,63)           119.154                                          !
 ! A137  A(66,65,67)           121.0286                                         !
 ! A138  A(66,65,94)           118.3911                                         !
 ! A139  A(67,65,94)           120.5803                                         !
 ! A140  A(65,67,68)           120.8551                                         !
 ! A141  A(65,67,69)           120.6763                                         !
 ! A142  A(68,67,69)           118.4686                                         !
 ! A143  A(67,69,70)           118.8814                                         !
 ! A144  A(67,69,96)           119.928                                          !
 ! A145  A(70,69,96)           121.1906                                         !
 ! A146  A(69,70,71)           123.3198                                         !
 ! A147  A(69,70,72)           114.5766                                         !
 ! A148  A(71,70,72)           122.1035                                         !
 ! A149  A(55,72,70)           128.464                                          !
 ! A150  A(55,72,73)           106.061                                          !
 ! A151  A(70,72,73)           125.475                                          !
 ! A152  A(72,73,74)           113.2698                                         !
 ! A153  A(72,73,75)           119.5771                                         !
 ! A154  A(74,73,75)           127.1531                                         !
 ! A155  A(54,74,73)           105.7576                                         !
 ! A156  A(73,75,76)           122.2085                                         !
 ! A157  A(73,75,96)           117.915                                          !
 ! A158  A(76,75,96)           119.8765                                         !
 ! A159  A(75,76,77)           118.472                                          !
 ! A160  A(75,76,78)           120.7656                                         !
 ! A161  A(77,76,78)           120.7624                                         !
 ! A162  A(76,78,79)           120.9437                                         !
 ! A163  A(76,78,80)           120.6092                                         !
 ! A164  A(79,78,80)           118.4471                                         !
 ! A165  A(78,80,81)           122.3227                                         !
 ! A166  A(78,80,95)           119.7549                                         !
 ! A167  A(81,80,95)           117.9224                                         !
 ! A168  A(80,81,82)           126.8358                                         !
 ! A169  A(80,81,91)           119.9773                                         !
 ! A170  A(82,81,91)           113.1869                                         !
 ! A171  A(81,82,83)           106.0292                                         !
 ! A172  A(82,83,84)           127.7571                                         !
 ! A173  A(82,83,90)           110.4152                                         !
 ! A174  A(84,83,90)           121.8277                                         !
 ! A175  A(83,84,85)           121.6876                                         !
 ! A176  A(83,84,86)           116.6978                                         !
 ! A177  A(85,84,86)           121.6146                                         !
 ! A178  A(84,86,87)           119.788                                          !
 ! A179  A(84,86,106)          128.77                                           !
 ! A180  A(87,86,106)          111.442                                          !
 ! A181  A(86,87,88)           124.4053                                         !
 ! A182  A(86,87,104)          104.2255                                         !
 ! A183  A(88,87,104)          131.3692                                         !
 ! A184  A(87,88,89)           121.7667                                         !
 ! A185  A(87,88,90)           113.8543                                         !
 ! A186  A(89,88,90)           124.3789                                         !
 ! A187  A(83,90,88)           123.4269                                         !
 ! A188  A(83,90,91)           104.4163                                         !
 ! A189  A(88,90,91)           132.1569                                         !
 ! A190  A(81,91,90)           105.9525                                         !
 ! A191  A(81,91,92)           125.2173                                         !
 ! A192  A(90,91,92)           128.8302                                         !
 ! A193  A(91,92,93)           122.9626                                         !
 ! A194  A(91,92,94)           114.649                                          !
 ! A195  A(93,92,94)           122.3884                                         !
 ! A196  A(65,94,92)           118.6912                                         !
 ! A197  A(65,94,95)           119.947                                          !
 ! A198  A(92,94,95)           121.3618                                         !
 ! A199  A(80,95,94)           120.8722                                         !
 ! A200  A(80,95,96)           119.6022                                         !
 ! A201  A(94,95,96)           119.5256                                         !
 ! A202  A(69,96,75)           121.2657                                         !
 ! A203  A(69,96,95)           119.3428                                         !
 ! A204  A(75,96,95)           119.3915                                         !
 ! A205  A(98,97,99)           121.7972                                         !
 ! A206  A(98,97,128)          117.2124                                         !
 ! A207  A(99,97,128)          120.9904                                         !
 ! A208  A(97,99,100)          121.8386                                         !
 ! A209  A(97,99,101)          120.9509                                         !
 ! A210  A(100,99,101)         117.2105                                         !
 ! A211  A(99,101,102)         118.7201                                         !
 ! A212  A(99,101,130)         119.8342                                         !
 ! A213  A(102,101,130)        121.4457                                         !
 ! A214  A(101,102,103)        127.1155                                         !
 ! A215  A(101,102,104)        113.7919                                         !
 ! A216  A(103,102,104)        119.0926                                         !
 ! A217  A(87,104,102)         127.1764                                         !
 ! A218  A(87,104,105)         106.751                                          !
 ! A219  A(102,104,105)        126.0726                                         !
 ! A220  A(104,105,106)        112.2678                                         !
 ! A221  A(104,105,107)        118.9589                                         !
 ! A222  A(106,105,107)        128.7733                                         !
 ! A223  A(86,106,105)         105.3136                                         !
 ! A224  A(105,107,108)        121.498                                          !
 ! A225  A(105,107,130)        117.7009                                         !
 ! A226  A(108,107,130)        120.8011                                         !
 ! A227  A(107,108,109)        117.6221                                         !
 ! A228  A(107,108,110)        120.4655                                         !
 ! A229  A(109,108,110)        121.9125                                         !
 ! A230  A(108,110,111)        121.8927                                         !
 ! A231  A(108,110,112)        120.4812                                         !
 ! A232  A(111,110,112)        117.626                                          !
 ! A233  A(110,112,113)        121.589                                          !
 ! A234  A(110,112,129)        120.7967                                         !
 ! A235  A(113,112,129)        117.6143                                         !
 ! A236  A(112,113,114)        128.9474                                         !
 ! A237  A(112,113,125)        118.8118                                         !
 ! A238  A(114,113,125)        112.2408                                         !
 ! A239  A(113,114,115)        104.9873                                         !
 ! A240  A(114,115,116)        129.7206                                         !
 ! A241  A(114,115,124)        111.7452                                         !
 ! A242  A(116,115,124)        118.5341                                         !
 ! A243  A(115,116,117)        119.5065                                         !
 ! A244  A(115,116,118)        118.8317                                         !
 ! A245  A(117,116,118)        121.6618                                         !
 ! A246  A(116,118,119)        119.2664                                         !
 ! A247  A(116,118,120)        121.5546                                         !
 ! A248  A(119,118,120)        119.1791                                         !
 ! A249  A(118,120,121)        119.7079                                         !
 ! A250  A(118,120,122)        120.8373                                         !
 ! A251  A(121,120,122)        119.4548                                         !
 ! A252  A(120,122,123)        123.1337                                         !
 ! A253  A(120,122,124)        117.3665                                         !
 ! A254  A(123,122,124)        119.4998                                         !
 ! A255  A(115,124,122)        122.8758                                         !
 ! A256  A(115,124,125)        104.5717                                         !
 ! A257  A(122,124,125)        132.5525                                         !
 ! A258  A(113,125,124)        106.4551                                         !
 ! A259  A(113,125,126)        126.3615                                         !
 ! A260  A(124,125,126)        127.1834                                         !
 ! A261  A(125,126,127)        119.107                                          !
 ! A262  A(125,126,128)        113.7661                                         !
 ! A263  A(127,126,128)        127.1269                                         !
 ! A264  A(97,128,126)         118.8438                                         !
 ! A265  A(97,128,129)         119.7848                                         !
 ! A266  A(126,128,129)        121.3715                                         !
 ! A267  A(112,129,128)        122.0748                                         !
 ! A268  A(112,129,130)        118.7482                                         !
 ! A269  A(128,129,130)        119.177                                          !
 ! A270  A(101,130,107)        122.03                                           !
 ! A271  A(101,130,129)        119.2628                                         !
 ! A272  A(107,130,129)        118.7072                                         !
 ! A273  A(132,131,133)        121.5544                                         !
 ! A274  A(132,131,204)        119.1784                                         !
 ! A275  A(133,131,204)        119.2672                                         !
 ! A276  A(131,132,134)        120.8372                                         !
 ! A277  A(131,132,203)        119.7073                                         !
 ! A278  A(134,132,203)        119.4555                                         !
 ! A279  A(131,133,135)        118.8319                                         !
 ! A280  A(131,133,151)        121.6626                                         !
 ! A281  A(135,133,151)        119.5055                                         !
 ! A282  A(132,134,136)        117.3669                                         !
 ! A283  A(132,134,155)        123.1343                                         !
 ! A284  A(136,134,155)        119.4989                                         !
 ! A285  A(133,135,136)        118.534                                          !
 ! A286  A(133,135,138)        129.7205                                         !
 ! A287  A(136,135,138)        111.7455                                         !
 ! A288  A(134,136,135)        122.8757                                         !
 ! A289  A(134,136,140)        132.5525                                         !
 ! A290  A(135,136,140)        104.5718                                         !
 ! A291  A(138,137,140)        112.2405                                         !
 ! A292  A(138,137,141)        128.9476                                         !
 ! A293  A(140,137,141)        118.8119                                         !
 ! A294  A(135,138,137)        104.9872                                         !
 ! A295  A(140,139,143)        119.107                                          !
 ! A296  A(140,139,144)        113.7662                                         !
 ! A297  A(143,139,144)        127.1268                                         !
 ! A298  A(136,140,137)        106.455                                          !
 ! A299  A(136,140,139)        127.1836                                         !
 ! A300  A(137,140,139)        126.3614                                         !
 ! A301  A(137,141,142)        121.5892                                         !
 ! A302  A(137,141,145)        117.6142                                         !
 ! A303  A(142,141,145)        120.7966                                         !
 ! A304  A(141,142,146)        120.4812                                         !
 ! A305  A(141,142,171)        117.626                                          !
 ! A306  A(146,142,171)        121.8927                                         !
 ! A307  A(139,144,145)        121.3715                                         !
 ! A308  A(139,144,147)        118.8438                                         !
 ! A309  A(145,144,147)        119.7847                                         !
 ! A310  A(141,145,144)        122.0748                                         !
 ! A311  A(141,145,148)        118.7483                                         !
 ! A312  A(144,145,148)        119.177                                          !
 ! A313  A(142,146,149)        120.4656                                         !
 ! A314  A(142,146,183)        121.9124                                         !
 ! A315  A(149,146,183)        117.622                                          !
 ! A316  A(144,147,150)        120.9903                                         !
 ! A317  A(144,147,180)        117.2124                                         !
 ! A318  A(150,147,180)        121.7972                                         !
 ! A319  A(145,148,149)        118.7073                                         !
 ! A320  A(145,148,152)        119.2628                                         !
 ! A321  A(149,148,152)        122.0299                                         !
 ! A322  A(146,149,148)        120.801                                          !
 ! A323  A(146,149,153)        121.498                                          !
 ! A324  A(148,149,153)        117.701                                          !
 ! A325  A(147,150,152)        120.951                                          !
 ! A326  A(147,150,187)        121.8385                                         !
 ! A327  A(152,150,187)        117.2105                                         !
 ! A328  A(148,152,150)        119.8342                                         !
 ! A329  A(148,152,154)        121.4457                                         !
 ! A330  A(150,152,154)        118.7201                                         !
 ! A331  A(149,153,159)        118.9589                                         !
 ! A332  A(149,153,165)        128.7732                                         !
 ! A333  A(159,153,165)        112.268                                          !
 ! A334  A(152,154,159)        113.792                                          !
 ! A335  A(152,154,163)        127.1152                                         !
 ! A336  A(159,154,163)        119.0928                                         !
 ! A337  A(158,156,159)        131.3693                                         !
 ! A338  A(158,156,160)        124.4051                                         !
 ! A339  A(159,156,160)        104.2256                                         !
 ! A340  A(162,157,166)        120.5805                                         !
 ! A341  A(162,157,188)        121.0284                                         !
 ! A342  A(166,157,188)        118.3911                                         !
 ! A343  A(156,158,167)        113.8544                                         !
 ! A344  A(156,158,189)        121.7669                                         !
 ! A345  A(167,158,189)        124.3787                                         !
 ! A346  A(153,159,154)        126.0725                                         !
 ! A347  A(153,159,156)        106.7509                                         !
 ! A348  A(154,159,156)        127.1766                                         !
 ! A349  A(156,160,165)        111.442                                          !
 ! A350  A(156,160,168)        119.7881                                         !
 ! A351  A(165,160,168)        128.7698                                         !
 ! A352  A(164,161,166)        122.3888                                         !
 ! A353  A(164,161,174)        122.9622                                         !
 ! A354  A(166,161,174)        114.649                                          !
 ! A355  A(157,162,170)        120.6763                                         !
 ! A356  A(157,162,190)        120.8553                                         !
 ! A357  A(170,162,190)        118.4685                                         !
 ! A358  A(153,165,160)        105.3136                                         !
 ! A359  A(157,166,161)        118.6914                                         !
 ! A360  A(157,166,172)        119.9469                                         !
 ! A361  A(161,166,172)        121.3617                                         !
 ! A362  A(158,167,169)        123.4268                                         !
 ! A363  A(158,167,174)        132.157                                          !
 ! A364  A(169,167,174)        104.4162                                         !
 ! A365  A(160,168,169)        116.6979                                         !
 ! A366  A(160,168,192)        121.6146                                         !
 ! A367  A(169,168,192)        121.6876                                         !
 ! A368  A(167,169,168)        121.8276                                         !
 ! A369  A(167,169,179)        110.4153                                         !
 ! A370  A(168,169,179)        127.7571                                         !
 ! A371  A(162,170,175)        118.8813                                         !
 ! A372  A(162,170,176)        119.9279                                         !
 ! A373  A(175,170,176)        121.1908                                         !
 ! A374  A(166,172,176)        119.5254                                         !
 ! A375  A(166,172,178)        120.8724                                         !
 ! A376  A(176,172,178)        119.6022                                         !
 ! A377  A(174,173,178)        119.977                                          !
 ! A378  A(174,173,179)        113.187                                          !
 ! A379  A(178,173,179)        126.836                                          !
 ! A380  A(161,174,167)        128.8301                                         !
 ! A381  A(161,174,173)        125.2174                                         !
 ! A382  A(167,174,173)        105.9525                                         !
 ! A383  A(170,175,177)        123.3187                                         !
 ! A384  A(170,175,186)        114.5768                                         !
 ! A385  A(177,175,186)        122.1045                                         !
 ! A386  A(170,176,172)        119.3431                                         !
 ! A387  A(170,176,181)        121.2652                                         !
 ! A388  A(172,176,181)        119.3917                                         !
 ! A389  A(172,178,173)        117.9224                                         !
 ! A390  A(172,178,182)        119.7548                                         !
 ! A391  A(173,178,182)        122.3228                                         !
 ! A392  A(169,179,173)        106.029                                          !
 ! A393  A(176,181,184)        117.915                                          !
 ! A394  A(176,181,185)        119.8763                                         !
 ! A395  A(184,181,185)        122.2087                                         !
 ! A396  A(178,182,185)        120.6094                                         !
 ! A397  A(178,182,193)        118.447                                          !
 ! A398  A(185,182,193)        120.9436                                         !
 ! A399  A(181,184,186)        119.5775                                         !
 ! A400  A(181,184,191)        127.1527                                         !
 ! A401  A(186,184,191)        113.2698                                         !
 ! A402  A(181,185,182)        120.7655                                         !
 ! A403  A(181,185,194)        118.4719                                         !
 ! A404  A(182,185,194)        120.7626                                         !
 ! A405  A(175,186,184)        125.4747                                         !
 ! A406  A(175,186,198)        128.4645                                         !
 ! A407  A(184,186,198)        106.0608                                         !
 ! A408  A(184,191,199)        105.7578                                         !
 ! A409  A(8,195,196)          104.1923                                         !
 ! A410  A(8,195,197)          131.7015                                         !
 ! A411  A(196,195,197)        124.1062                                         !
 ! A412  A(10,196,195)         111.1706                                         !
 ! A413  A(10,196,200)         128.2498                                         !
 ! A414  A(195,196,200)        120.5796                                         !
 ! A415  A(195,197,198)        113.6771                                         !
 ! A416  A(195,197,201)        122.6087                                         !
 ! A417  A(198,197,201)        123.7142                                         !
 ! A418  A(186,198,197)        132.0427                                         !
 ! A419  A(186,198,199)        104.3064                                         !
 ! A420  A(197,198,199)        123.6508                                         !
 ! A421  A(191,199,198)        110.6051                                         !
 ! A422  A(191,199,200)        127.8205                                         !
 ! A423  A(198,199,200)        121.5743                                         !
 ! A424  A(196,200,199)        116.412                                          !
 ! A425  A(196,200,202)        121.7381                                         !
 ! A426  A(199,200,202)        121.8499                                         !
 ! D1    D(2,1,3,4)             -0.0002                                         !
 ! D2    D(2,1,3,5)            180.0                                            !
 ! D3    D(30,1,3,4)           179.9998                                         !
 ! D4    D(30,1,3,5)             0.0                                            !
 ! D5    D(2,1,30,28)           -0.0002                                         !
 ! D6    D(2,1,30,31)         -180.0                                            !
 ! D7    D(3,1,30,28)          179.9998                                         !
 ! D8    D(3,1,30,31)            0.0                                            !
 ! D9    D(1,3,5,6)            179.9996                                         !
 ! D10   D(1,3,5,32)            -0.0001                                         !
 ! D11   D(4,3,5,6)             -0.0003                                         !
 ! D12   D(4,3,5,32)          -180.0                                            !
 ! D13   D(3,5,6,7)              0.0036                                         !
 ! D14   D(3,5,6,8)            179.9987                                         !
 ! D15   D(32,5,6,7)          -179.9968                                         !
 ! D16   D(32,5,6,8)            -0.0017                                         !
 ! D17   D(3,5,32,11)         -179.9997                                         !
 ! D18   D(3,5,32,31)            0.0002                                         !
 ! D19   D(6,5,32,11)            0.0007                                         !
 ! D20   D(6,5,32,31)         -179.9994                                         !
 ! D21   D(5,6,8,9)              0.0017                                         !
 ! D22   D(5,6,8,195)         -179.9982                                         !
 ! D23   D(7,6,8,9)            179.997                                          !
 ! D24   D(7,6,8,195)           -0.0029                                         !
 ! D25   D(6,8,9,10)           179.9996                                         !
 ! D26   D(6,8,9,11)            -0.0006                                         !
 ! D27   D(195,8,9,10)          -0.0005                                         !
 ! D28   D(195,8,9,11)         179.9993                                         !
 ! D29   D(6,8,195,196)       -179.9997                                         !
 ! D30   D(6,8,195,197)          0.0001                                         !
 ! D31   D(9,8,195,196)          0.0004                                         !
 ! D32   D(9,8,195,197)       -179.9998                                         !
 ! D33   D(8,9,10,196)           0.0005                                         !
 ! D34   D(11,9,10,196)       -179.9994                                         !
 ! D35   D(8,9,11,12)          179.9999                                         !
 ! D36   D(8,9,11,32)           -0.0006                                         !
 ! D37   D(10,9,11,12)          -0.0003                                         !
 ! D38   D(10,9,11,32)         179.9993                                         !
 ! D39   D(9,10,196,195)        -0.0002                                         !
 ! D40   D(9,10,196,200)       179.9998                                         !
 ! D41   D(9,11,12,13)          -0.0003                                         !
 ! D42   D(9,11,12,14)         179.9996                                         !
 ! D43   D(32,11,12,13)       -179.9999                                         !
 ! D44   D(32,11,12,14)          0.0                                            !
 ! D45   D(9,11,32,5)            0.0005                                         !
 ! D46   D(9,11,32,31)        -179.9994                                         !
 ! D47   D(12,11,32,5)        -179.9999                                         !
 ! D48   D(12,11,32,31)          0.0002                                         !
 ! D49   D(11,12,14,15)        180.0                                            !
 ! D50   D(11,12,14,16)         -0.0002                                         !
 ! D51   D(13,12,14,15)         -0.0001                                         !
 ! D52   D(13,12,14,16)        179.9997                                         !
 ! D53   D(12,14,16,17)       -180.0                                            !
 ! D54   D(12,14,16,31)          0.0001                                         !
 ! D55   D(15,14,16,17)         -0.0001                                         !
 ! D56   D(15,14,16,31)        180.0                                            !
 ! D57   D(14,16,17,18)         -0.0002                                         !
 ! D58   D(14,16,17,27)        179.9999                                         !
 ! D59   D(31,16,17,18)        179.9997                                         !
 ! D60   D(31,16,17,27)         -0.0002                                         !
 ! D61   D(14,16,31,30)       -179.9998                                         !
 ! D62   D(14,16,31,32)          0.0001                                         !
 ! D63   D(17,16,31,30)          0.0003                                         !
 ! D64   D(17,16,31,32)       -179.9998                                         !
 ! D65   D(16,17,18,19)       -179.9999                                         !
 ! D66   D(27,17,18,19)          0.0                                            !
 ! D67   D(16,17,27,26)        179.9998                                         !
 ! D68   D(16,17,27,28)         -0.0004                                         !
 ! D69   D(18,17,27,26)         -0.0001                                         !
 ! D70   D(18,17,27,28)        179.9997                                         !
 ! D71   D(17,18,19,20)       -179.9999                                         !
 ! D72   D(17,18,19,26)          0.0002                                         !
 ! D73   D(18,19,20,21)          0.0001                                         !
 ! D74   D(18,19,20,22)       -179.9999                                         !
 ! D75   D(26,19,20,21)        180.0                                            !
 ! D76   D(26,19,20,22)         -0.0001                                         !
 ! D77   D(18,19,26,24)        179.9998                                         !
 ! D78   D(18,19,26,27)         -0.0002                                         !
 ! D79   D(20,19,26,24)         -0.0001                                         !
 ! D80   D(20,19,26,27)        179.9999                                         !
 ! D81   D(19,20,22,23)          0.0001                                         !
 ! D82   D(19,20,22,42)       -180.0                                            !
 ! D83   D(21,20,22,23)       -179.9999                                         !
 ! D84   D(21,20,22,42)          0.0                                            !
 ! D85   D(20,22,23,24)          0.0                                            !
 ! D86   D(20,22,23,40)       -180.0                                            !
 ! D87   D(42,22,23,24)       -180.0                                            !
 ! D88   D(42,22,23,40)          0.0001                                         !
 ! D89   D(20,22,42,41)        179.9997                                         !
 ! D90   D(23,22,42,41)         -0.0004                                         !
 ! D91   D(22,23,24,25)       -180.0                                            !
 ! D92   D(22,23,24,26)         -0.0001                                         !
 ! D93   D(40,23,24,25)          0.0                                            !
 ! D94   D(40,23,24,26)        179.9999                                         !
 ! D95   D(22,23,40,38)       -179.9994                                         !
 ! D96   D(22,23,40,41)          0.0003                                         !
 ! D97   D(24,23,40,38)          0.0006                                         !
 ! D98   D(24,23,40,41)       -179.9997                                         !
 ! D99   D(23,24,26,19)          0.0001                                         !
 ! D100  D(23,24,26,27)       -179.9998                                         !
 ! D101  D(25,24,26,19)       -180.0                                            !
 ! D102  D(25,24,26,27)          0.0001                                         !
 ! D103  D(19,26,27,17)          0.0002                                         !
 ! D104  D(19,26,27,28)       -179.9996                                         !
 ! D105  D(24,26,27,17)       -179.9999                                         !
 ! D106  D(24,26,27,28)          0.0003                                         !
 ! D107  D(17,27,28,29)        179.999                                          !
 ! D108  D(17,27,28,30)          0.0009                                         !
 ! D109  D(26,27,28,29)         -0.0012                                         !
 ! D110  D(26,27,28,30)       -179.9994                                         !
[...]
     8  N   -0.596514
     9  C    0.529262
    10  N   -0.399788
    11  C   -0.320275
    12  C   -0.032591
    13  H    0.088783
    14  C   -0.048613
    15  H    0.089916
    16  C   -0.292966
    17  C    0.512345
    18  N   -0.399037
    19  C   -0.007334
    20  C   -0.126873
    21  H    0.077006
    22  C   -0.007355
    23  C    0.215452
    24  C   -0.022075
    25  H    0.161228
    26  C    0.215451
    27  N   -0.595092
    28  C    0.534250
    29  O   -0.365124
    30  C   -0.308995
    31  C    0.145099
    32  C    0.157619
    33  C   -0.052648
    34  H    0.097405
    35  C   -0.057589
    36  H    0.098713
    37  C   -0.308978
    38  C    0.534298
    39  O   -0.365046
    40  N   -0.595109
    41  C    0.512340
    42  N   -0.398998
    43  C   -0.292905
    44  C   -0.048597
    45  H    0.089945
    46  C   -0.032565
    47  H    0.088809
    48  C   -0.320241
    49  C    0.529275
    50  N   -0.399756
    51  C   -0.013882
    52  C   -0.095201
    53  H    0.089863
    54  C   -0.028609
    55  C    0.214149
    56  C   -0.006418
    57  H    0.161234
    58  C    0.212695
    59  N   -0.596534
    60  C    0.526007
    61  O   -0.386581
    62  C   -0.311505
    63  C    0.157624
    64  C    0.145080
    65  C   -0.040067
    66  H    0.122553
    67  C   -0.032414
    68  H    0.120496
    69  C   -0.295057
    70  C    0.559261
    71  O   -0.333476
    72  N   -0.607623
    73  C    0.527675
    74  N   -0.368823
    75  C   -0.270046
    76  C   -0.016401
    77  H    0.110421
    78  C   -0.025999
    79  H    0.111322
    80  C   -0.248927
    81  C    0.511836
    82  N   -0.364098
    83  C   -0.028750
    84  C   -0.118690
    85  H    0.075667
    86  C   -0.001687
    87  C    0.201497
    88  C   -0.017944
    89  H    0.158442
    90  C    0.202346
    91  N   -0.600440
    92  C    0.557178
    93  O   -0.331073
    94  C   -0.287219
    95  C    0.133815
    96  C    0.150146
    97  C   -0.079743
    98  H    0.063506
    99  C   -0.076506
   100  H    0.068469
   101  C   -0.324664
   102  C    0.490701
   103  O   -0.443466
   104  N   -0.577055
   105  C    0.515401
   106  N   -0.422322
   107  C   -0.337832
   108  C   -0.058403
   109  H    0.064467
   110  C   -0.062372
   111  H    0.061707
   112  C   -0.331418
   113  C    0.508983
   114  N   -0.420605
   115  C   -0.004393
   116  C   -0.140491
   117  H    0.061415
   118  C   -0.121830
   119  H    0.049141
   120  C   -0.165249
   121  H    0.053242
   122  C   -0.072064
   123  H    0.117484
   124  C    0.191917
   125  N   -0.565418
   126  C    0.484362
   127  O   -0.460902
   128  C   -0.320797
   129  C    0.149194
   130  C    0.152983
   131  C   -0.121830
   132  C   -0.165250
   133  C   -0.140491
   134  C   -0.072065
   135  C   -0.004394
   136  C    0.191918
   137  C    0.508979
   138  N   -0.420607
   139  C    0.484360
   140  N   -0.565417
   141  C   -0.331414
   142  C   -0.062376
   143  O   -0.460907
   144  C   -0.320795
   145  C    0.149193
   146  C   -0.058402
   147  C   -0.079746
   148  C    0.152983
   149  C   -0.337834
   150  C   -0.076505
   151  H    0.061414
   152  C   -0.324667
   153  C    0.515400
   154  C    0.490701
   155  H    0.117483
   156  C    0.201496
   157  C   -0.040066
   158  C   -0.017945
   159  N   -0.577055
   160  C   -0.001689
   161  C    0.557175
   162  C   -0.032423
   163  O   -0.443466
   164  O   -0.331078
   165  N   -0.422324
   166  C   -0.287223
   167  C    0.202347
   168  C   -0.118693
   169  C   -0.028750
   170  C   -0.295052
   171  H    0.061704
   172  C    0.133824
   173  C    0.511839
   174  N   -0.600441
   175  C    0.559256
   176  C    0.150133
   177  O   -0.333478
   178  C   -0.248935
   179  N   -0.364104
   180  H    0.063504
   181  C   -0.270029
   182  C   -0.025998
   183  H    0.064466
   184  C    0.527659
   185  C   -0.016411
   186  N   -0.607615
   187  H    0.068468
   188  H    0.122548
   189  H    0.158440
   190  H    0.120493
   191  N   -0.368823
   192  H    0.075664
   193  H    0.111317
   194  H    0.110418
   195  C    0.212679
   196  C   -0.013865
   197  C   -0.006431
   198  C    0.214136
   199  C   -0.028609
   200  C   -0.095231
   201  H    0.161229
   202  H    0.089845
   203  H    0.053240
   204  H    0.049138
 Sum of Mulliken charges =  -6.00000
 Mulliken charges with hydrogens summed into heavy atoms:
               1
     1  C    0.041064
     3  C    0.044703
     5  C   -0.311522
     6  C    0.525965
     7  O   -0.386646
     8  N   -0.596514
     9  C    0.529262
    10  N   -0.399788
    11  C   -0.320275
    12  C    0.056193
    14  C    0.041303
    16  C   -0.292966
    17  C    0.512345
    18  N   -0.399037
    19  C   -0.007334
    20  C   -0.049867
    22  C   -0.007355
    23  C    0.215452
    24  C    0.139153
    26  C    0.215451
    27  N   -0.595092
    28  C    0.534250
    29  O   -0.365124
    30  C   -0.308995
    31  C    0.145099
    32  C    0.157619
    33  C    0.044757
    35  C    0.041124
    37  C   -0.308978
    38  C    0.534298
    39  O   -0.365046
    40  N   -0.595109
    41  C    0.512340
    42  N   -0.398998
    43  C   -0.292905
    44  C    0.041349
    46  C    0.056244
    48  C   -0.320241
    49  C    0.529275
    50  N   -0.399756
    51  C   -0.013882
    52  C   -0.005338
    54  C   -0.028609
    55  C    0.214149
    56  C    0.154816
    58  C    0.212695
    59  N   -0.596534
    60  C    0.526007
    61  O   -0.386581
    62  C   -0.311505
    63  C    0.157624
    64  C    0.145080
    65  C    0.082486
    67  C    0.088082
    69  C   -0.295057
    70  C    0.559261
    71  O   -0.333476
    72  N   -0.607623
    73  C    0.527675
    74  N   -0.368823
    75  C   -0.270046
    76  C    0.094021
    78  C    0.085323
    80  C   -0.248927
    81  C    0.511836
    82  N   -0.364098
    83  C   -0.028750
    84  C   -0.043023
    86  C   -0.001687
    87  C    0.201497
    88  C    0.140498
    90  C    0.202346
    91  N   -0.600440
    92  C    0.557178
    93  O   -0.331073
    94  C   -0.287219
    95  C    0.133815
    96  C    0.150146
    97  C   -0.016236
    99  C   -0.008037
   101  C   -0.324664
   102  C    0.490701
   103  O   -0.443466
   104  N   -0.577055
   105  C    0.515401
   106  N   -0.422322
   107  C   -0.337832
   108  C    0.006063
   110  C   -0.000665
   112  C   -0.331418
   113  C    0.508983
   114  N   -0.420605
   115  C   -0.004393
   116  C   -0.079076
   118  C   -0.072689
   120  C   -0.112007
   122  C    0.045420
   124  C    0.191917
   125  N   -0.565418
   126  C    0.484362
   127  O   -0.460902
   128  C   -0.320797
   129  C    0.149194
   130  C    0.152983
   131  C   -0.072692
   132  C   -0.112010
   133  C   -0.079078
   134  C    0.045418
   135  C   -0.004394
   136  C    0.191918
   137  C    0.508979
   138  N   -0.420607
   139  C    0.484360
   140  N   -0.565417
   141  C   -0.331414
   142  C   -0.000671
   143  O   -0.460907
   144  C   -0.320795
   145  C    0.149193
   146  C    0.006063
   147  C   -0.016242
   148  C    0.152983
   149  C   -0.337834
   150  C   -0.008036
   152  C   -0.324667
   153  C    0.515400
   154  C    0.490701
   156  C    0.201496
   157  C    0.082482
   158  C    0.140495
   159  N   -0.577055
   160  C   -0.001689
   161  C    0.557175
   162  C    0.088070
   163  O   -0.443466
   164  O   -0.331078
   165  N   -0.422324
   166  C   -0.287223
   167  C    0.202347
   168  C   -0.043029
   169  C   -0.028750
   170  C   -0.295052
   172  C    0.133824
   173  C    0.511839
   174  N   -0.600441
   175  C    0.559256
   176  C    0.150133
   177  O   -0.333478
   178  C   -0.248935
   179  N   -0.364104
   181  C   -0.270029
   182  C    0.085319
   184  C    0.527659
   185  C    0.094007
   186  N   -0.607615
   191  N   -0.368823
   195  C    0.212679
   196  C   -0.013865
   197  C    0.154798
   198  C    0.214136
   199  C   -0.028609
   200  C   -0.005386
 Electronic spatial extent (au):  <R**2>=        1782588.7493
 Charge=             -6.0000 electrons
 Dipole moment (field-independent basis, Debye):
    X=             -0.0334    Y=            -22.1882    Z=             -0.0008  Tot=             22.1882
 Quadrupole moment (field-independent basis, Debye-Ang):
   XX=         -18439.3957   YY=          -1241.0711   ZZ=           -936.9325
   XY=              0.0204   XZ=             -0.0145   YZ=              0.0020
 Traceless Quadrupole moment (field-independent basis, Debye-Ang):
   XX=         -11566.9293   YY=           5631.3953   ZZ=           5935.5339
   XY=              0.0204   XZ=             -0.0145   YZ=              0.0020
 Octapole moment (field-independent basis, Debye-Ang**2):
  XXX=            -10.2372  YYY=           -483.2943  ZZZ=             -0.0139  XYY=             -0.3599
  XXY=         -41029.3872  XXZ=             -1.6227  XZZ=             -0.0332  YZZ=             23.6181
  YYZ=             -0.0026  XYZ=             -0.0426
 Hexadecapole moment (field-independent basis, Debye-Ang**3):
 XXXX=      -19004252.2489 YYYY=         -43674.6265 ZZZZ=           -990.1480 XXXY=            -19.2003
 XXXZ=            -21.4834 YYYX=              0.3082 YYYZ=             -0.0404 ZZZX=             -0.0958
 ZZZY=             -0.0142 XXYY=        -644356.2602 XXZZ=        -438573.6090 YYZZ=          -6650.1281
 XXYZ=             -0.7775 YYXZ=             -0.1117 ZZXY=              0.0222
 N-N= 2.609126370424D+04 E-N=-6.885627704990D+04  KE= 7.019095025419D+03
 Leave Link  601 at Sun Jan 21 17:16:59 2024, MaxMem= 26843545600 cpu:              44.4 elap:               1.7
 (Enter /apps/gaussian/g16-c01-avx2/g16/l9999.exe)
 Unable to Open any file for archive entry.
 1\1\GINC-CX3-6-25\Stability\RwB97XD\6-311G(d,p)\C126H42N24O12(6-)\NS50
 18\21-Jan-2024\0\\#p wB97XD/6-311(d,p) Geom=AllCheck guess=read stable
 \\002\\-6,1\C,0,6.5911103155,-1.0701693101,-0.0009638497\H,0,7.1080231
 638,-0.1184185167,-0.00126214\C,0,5.2166656822,-1.1399105084,-0.001082
 5857\H,0,4.607878654,-0.2437482556,-0.0014756033\C,0,4.5594270085,-2.3
 815927499,-0.0006921473\C,0,3.1005439249,-2.4052977827,-0.000826793\O,
 0,2.374947336,-1.4234200913,-0.0013200387\N,0,2.5458494897,-3.69659072
 73,-0.0004380572\C,0,3.2648933593,-4.8993739279,0.000077846\N,0,2.4842
 512674,-5.9582195769,0.0003655291\C,0,4.6892097162,-4.8540842758,0.000
 2269302\C,0,5.4703393169,-6.0279575116,0.0007426047\H,0,4.9546211039,-
 6.9810715202,0.001033524\C,0,6.8397264449,-5.9619120523,0.0008688984\H
 ,0,7.4495762211,-6.8569416106,0.0012640764\C,0,7.4975283877,-4.7134352
 036,0.0004798162\C,0,8.9131198121,-4.6139159359,0.0005981915\N,0,9.799
 1871665,-5.5913692557,0.0010600427\C,0,11.028494844,-4.98287936,0.0009
 696904\C,0,12.2914061391,-5.570264288,0.0013271457\H,0,12.4163884533,-
 6.6448697627,0.0017382661\C,0,13.3857928719,-4.708717001,0.001129521\C
 ,0,13.1970594184,-3.2950153161,0.0005871256\C,0,11.9545418542,-2.67362
 98349,0.0002214168\H,0,11.8300634183,-1.6034809557,-0.0001871603\C,0,1
 0.8877836186,-3.5635742156,0.0004301159\N,0,9.5100077506,-3.3500229599
 ,0.0001949156\C,0,8.8277442077,-2.1222320825,-0.0003436311\O,0,9.43645
 67956,-1.0684170812,-0.0006495659\C,0,7.3649109465,-2.2425084742,-0.00
 0448392\C,0,6.7403458571,-3.5087168258,-0.0000458692\C,0,5.3114372683,
 -3.5835219101,-0.0001706366\C,0,18.1608017498,0.3652607852,-0.00032122
 15\H,0,18.5476899332,1.3772119009,-0.000675757\C,0,16.8069875025,0.117
 7480423,-0.0003445897\H,0,16.0854867334,0.9255005778,-0.000713848\C,0,
 16.3228705485,-1.2008235852,0.0001194969\C,0,14.8714089518,-1.41943847
 71,0.0000904771\O,0,14.0372056997,-0.5333744792,-0.0003822074\N,0,14.4
 89084211,-2.7709850832,0.0005352735\C,0,15.3600640439,-3.8641938236,0.
 0010278937\N,0,14.7219633381,-5.0188609828,0.0013916056\C,0,16.7607537
 872,-3.6362462151,0.0010825882\C,0,17.6874527796,-4.700439149,0.001573
 2077\H,0,17.2992651088,-5.7115294705,0.0019198126\C,0,19.0354910626,-4
 .450498706,0.0016043592\H,0,19.7561306555,-5.2598624129,0.0019792759\C
 ,0,19.5264160806,-3.1287510534,0.0011431434\C,0,20.9231484414,-2.84599
 73875,0.0011656928\N,0,21.9258945367,-3.6974522344,0.0015926763\C,0,23
 .0624236215,-2.9245332341,0.0014042425\C,0,24.3890431725,-3.3436363959
 ,0.0016961267\H,0,24.6545578626,-4.3924701168,0.0021286863\C,0,25.3520
 956869,-2.344402875,0.0014028141\C,0,24.9987407435,-0.9763402012,0.000
 8374101\C,0,23.6855798577,-0.519848372,0.0005327494\H,0,23.4149072402,
 0.5234045764,0.0001008246\C,0,22.7411165642,-1.5381494388,0.0008359389
 \N,0,21.3470125567,-1.5103098277,0.0006899318\C,0,20.5108252149,-0.380
 7649963,0.0001701013\O,0,20.9917166331,0.741407329,-0.0001984995\C,0,1
 9.085385895,-0.6924488531,0.0001670075\C,0,18.6292385882,-2.0348690302
 ,0.0006423495\C,0,17.2213192982,-2.2899324864,0.0006137906\C,0,29.5852
 360043,3.1937618157,-0.0003100185\H,0,29.8533940297,4.2433103737,-0.00
 06850156\C,0,28.2397998982,2.790208995,-0.0002952514\H,0,27.4403412876
 ,3.5214617259,-0.0006618559\C,0,27.9074645023,1.4553088789,0.000185253
 1\C,0,26.464325455,1.0712840303,0.0001791058\O,0,25.563046292,1.876522
 0068,-0.0002125486\N,0,26.2306343069,-0.2994184695,0.0006950624\C,0,27
 .2187810615,-1.2927648199,0.0011810637\N,0,26.736785208,-2.4929449127,
 0.0015955992\C,0,28.6192274781,-0.9103672608,0.0011752918\C,0,29.63598
 46542,-1.8426716919,0.0016407102\H,0,29.3730101373,-2.8937350029,0.002
 0202388\C,0,30.9769942302,-1.4399549454,0.0016223034\H,0,31.777614194,
 -2.1695060383,0.0019858799\C,0,31.3084017101,-0.1001733284,0.001138997
 9\C,0,32.683938738,0.358178719,0.0010998951\N,0,33.7470571493,-0.37892
 70745,0.0014991301\C,0,34.8255937633,0.5018224125,0.0012562721\C,0,36.
 179350009,0.189101188,0.0015107315\H,0,36.5260097168,-0.8362239088,0.0
 019495916\C,0,37.0712897232,1.2632529656,0.0011722532\C,0,36.568844048
 2,2.606614519,0.0005919597\C,0,35.2215370062,2.9400003685,0.0003304099
 \H,0,34.8907788408,3.9659877614,-0.0001055808\C,0,34.369580154,1.83979
 20017,0.0006848419\N,0,32.9645681645,1.7315807566,0.0005899627\C,0,32.
 0174249473,2.7389763768,0.000129192\O,0,32.305884426,3.9131004272,-0.0
 003151433\C,0,30.5954203083,2.2608241934,0.0001564464\C,0,30.282046089
 7,0.8788760528,0.0006561937\C,0,28.9292423193,0.4717518895,0.000672268
 3\C,0,40.5258607644,7.2965550726,-0.0008472191\H,0,40.6808153797,8.369
 4035394,-0.0012491736\C,0,39.2867295445,6.7557411013,-0.0007658626\H,0
 ,38.3943182234,7.3709776515,-0.0010997575\C,0,39.1024661476,5.33157991
 77,-0.0002307045\C,0,37.7692037503,4.8104783116,-0.0001699628\O,0,36.7
 172062785,5.4560681708,-0.0005060197\N,0,37.7088715496,3.3969611108,0.
 0003880969\C,0,38.8041112186,2.525248935,0.000840876\N,0,38.4298389333
 ,1.2410776715,0.0013144553\C,0,40.102758878,3.063816621,0.0007599398\C
 ,0,41.2644949528,2.2204620092,0.0012106411\H,0,41.1069760396,1.1479789
 784,0.0016147838\C,0,42.5038787783,2.7608277563,0.001127841\H,0,43.396
 7522592,2.1460186795,0.0014614492\C,0,42.6769679888,4.1860991243,0.000
 5891528\C,0,43.9560811663,4.7734723954,0.0004942419\N,0,45.1568977287,
 4.177699209,0.0008555788\C,0,46.0558639925,5.1982696931,0.0005518813\C
 ,0,47.4585839154,5.1577534216,0.0007166316\H,0,47.9655787251,4.1982660
 623,0.0011465097\C,0,48.1624373113,6.3533209204,0.0003227867\H,0,49.24
 98585132,6.3301678289,0.0004473393\C,0,47.5051967744,7.5915308669,-0.0
 002319458\H,0,48.0860434764,8.509174862,-0.0005295509\C,0,46.112920908
 3,7.6615252018,-0.0004070828\H,0,45.5682387839,8.5952954027,-0.0008302
 432\C,0,45.4144785975,6.4636229577,-0.0000120542\N,0,44.0571560691,6.1
 674805053,-0.0000383307\C,0,42.9840467323,7.0842805608,-0.0005085698\O
 ,0,43.2288032496,8.2979650309,-0.0009571641\C,0,41.696287925,6.4638238
 387,-0.0004013576\C,0,41.5567623823,5.0525481325,0.0001339695\C,0,40.2
 306088635,4.4750733611,0.000221233\C,0,-25.3585081231,-2.1957493699,-0
 .0048410561\C,0,-25.0029165926,-0.8397638619,-0.0053275054\C,0,-24.399
 1048724,-3.1979086671,-0.0043175165\C,0,-23.6638521124,-0.4521764761,-
 0.005266377\C,0,-23.0431001349,-2.8366104335,-0.0042450125\C,0,-22.709
 1731944,-1.4578553877,-0.0047316719\C,0,-20.9018664554,-2.7682689463,-
 0.0039597989\N,0,-21.933945609,-3.6236819522,-0.0038006288\C,0,-20.486
 000879,-0.2960759793,-0.0048247547\N,0,-21.3201118514,-1.4346460738,-0
 .0045269829\C,0,-19.5221052671,-3.0464685647,-0.0036547974\C,0,-19.026
 591721,-4.39399488,-0.0030798363\O,0,-21.0027162381,0.8290665551,-0.00
 53157742\C,0,-19.0902341038,-0.6044912887,-0.0045121605\C,0,-18.630601
 7174,-1.9460971175,-0.0039407023\C,0,-17.6962842172,-4.6355535621,-0.0
 028000739\C,0,-18.1421117569,0.4745858219,-0.0047821833\C,0,-17.207325
 4893,-2.203866969,-0.0036393916\C,0,-16.7590605753,-3.5481311545,-0.00
 30715215\C,0,-16.8119482543,0.2325286377,-0.0044983842\H,0,-24.6723958
 111,-4.2481340678,-0.0039311062\C,0,-16.305815355,-1.1113515046,-0.003
 9186582\C,0,-15.3714810514,-3.7743435601,-0.0027948019\C,0,-14.8885538
 631,-1.312621417,-0.0036296891\H,0,-23.3479472248,0.5816574781,-0.0056
 362441\C,0,-13.2145223755,-3.1822502034,-0.0027190866\C,0,-6.551965519
 7,-1.0083343372,-0.00261824\C,0,-11.9796587983,-2.5486132332,-0.002781
 8384\N,0,-14.5054864728,-2.6745774281,-0.0030790718\C,0,-13.3953173716
 ,-4.6050554134,-0.0022210931\C,0,-8.8149067164,-2.0090680478,-0.002551
 1528\C,0,-5.1498281857,-1.0923999857,-0.0023981537\O,0,-14.0127653696,
 -0.4428632429,-0.0038717362\O,0,-9.3650890155,-0.9324632945,-0.0030326
 485\N,0,-14.7125338688,-4.9383697045,-0.0022778503\C,0,-7.321130961,-2
 .1481716385,-0.0022997575\C,0,-10.8979823322,-3.4239796644,-0.00231436
 17\C,0,-12.2807049234,-5.4458873162,-0.0017612356\C,0,-11.0348239971,-
 4.8308844196,-0.0018178063\C,0,-4.5200588594,-2.3154258171,-0.00186023
 38\H,0,-19.7545673605,-5.197278648,-0.0028853957\C,0,-6.6990202086,-3.
 4213428456,-0.0017452141\C,0,-8.9173497483,-4.4792832229,-0.00165634\N
 ,0,-9.505626543,-3.2069161673,-0.002200837\C,0,-3.0272983683,-2.358065
 1783,-0.0016406235\C,0,-5.2888929451,-3.5071917252,-0.0015236894\O,0,-
 2.3348536399,-1.3674915066,-0.0019323807\C,0,-7.4733374349,-4.60977528
 48,-0.0014114999\N,0,-9.7829682309,-5.4406611353,-0.0014237624\H,0,-18
 .5391047514,1.4832540407,-0.0052177405\C,0,-4.670004709,-4.7812966505,
 -0.0009721405\C,0,-6.8433452842,-5.8377623111,-0.0008739265\H,0,-17.29
 68763902,-5.6432767762,-0.0023687694\C,0,-3.2191783002,-4.8321415048,-
 0.0007637855\C,0,-5.4457075462,-5.922029044,-0.0006556311\N,0,-2.48532
 39271,-3.6385613803,-0.0010974539\H,0,-16.0845185559,1.0361209475,-0.0
 046931194\H,0,-7.0537932468,-0.0483185531,-0.003040685\H,0,-11.8931405
 797,-1.4741061873,-0.0031625239\H,0,-4.5394890548,-0.1972180058,-0.002
 6468998\N,0,-2.4746560441,-5.88970215,-0.0002850848\H,0,-12.3828498971
 ,-6.5233989518,-0.0013797362\H,0,-7.4552001786,-6.7315585348,-0.000627
 3734\H,0,-4.9485726654,-6.8847057536,-0.0002353724\C,0,1.1953366914,-4
 .0435708469,-0.0004854485\C,0,1.200719452,-5.4667037794,0.0000275893\C
 ,0,0.042418822,-3.2691493915,-0.0009080534\C,0,-1.1309687631,-4.014764
 3669,-0.0007910233\C,0,-1.1609889069,-5.427403589,-0.0002856422\C,0,0.
 0056423012,-6.1790081925,0.0001337547\H,0,0.0665103465,-2.1916244137,-
 0.0012919919\H,0,-0.0121410285,-7.2607824527,0.0005212099\H,0,-25.7788
 293017,-0.0798911407,-0.0057109071\H,0,-26.4116083341,-2.4677891617,-0
 .0048847962\\Version=ES64L-G16RevC.01\State=1-A\HF=-7043.291263\RMSD=1
 .216e-10\Dipole=1.0213266,-8.6695589,0.0042032\Quadrupole=-8429.140605
 9,4016.2167107,4412.9238952,-1467.0124507,-0.8859024,-0.0034571\PG=C01
  [X(C126H42N24O12)]\\@
 The archive entry for this job was punched.


 YOU SHOULDN'T LET PEOPLE DRIVE YOU CRAZY
 WHEN YOU KNOW IT'S WITHIN WALKING DISTANCE.
 Job cpu time:       1 days  7 hours  9 minutes 57.5 seconds.
 Elapsed time:       0 days  0 hours 59 minutes 19.8 seconds.
 File lengths (MBytes):  RWF=  65440 Int=      0 D2E=      0 Chk=   2952 Scr=     16
 Normal termination of Gaussian 16 at Sun Jan 21 17:17:01 2024.
