 Entering Gaussian System, Link 0=g16
 Input=step1.gjf
 Output=step1.log
 Initial command:
 /share/software/user/restricted/gaussian/g16.B01/l1.exe "/scratch/users/nsiemons/BBL/0013/025/Gau-20578.inp" -scrdir="/scratch/users/nsiemons/BBL/0013/025/"
 Entering Link 1 = /share/software/user/restricted/gaussian/g16.B01/l1.exe PID=     20579.
  
 Copyright (c) 1988-2017, Gaussian, Inc.  All Rights Reserved.
  
 This is part of the Gaussian(R) 16 program.  It is based on
 the Gaussian(R) 09 system (copyright 2009, Gaussian, Inc.),
 the Gaussian(R) 03 system (copyright 2003, Gaussian, Inc.),
 the Gaussian(R) 98 system (copyright 1998, Gaussian, Inc.),
 the Gaussian(R) 94 system (copyright 1995, Gaussian, Inc.),
 the Gaussian 92(TM) system (copyright 1992, Gaussian, Inc.),
 the Gaussian 90(TM) system (copyright 1990, Gaussian, Inc.),
 the Gaussian 88(TM) system (copyright 1988, Gaussian, Inc.),
 the Gaussian 86(TM) system (copyright 1986, Carnegie Mellon
 University), and the Gaussian 82(TM) system (copyright 1983,
 Carnegie Mellon University). Gaussian is a federally registered
 trademark of Gaussian, Inc.
  
 This software contains proprietary and confidential information,
 including trade secrets, belonging to Gaussian, Inc.
  
 This software is provided under written license and may be
 used, copied, transmitted, or stored only in accord with that
 written license.
  
 The following legend is applicable only to US Government
 contracts under FAR:
  
                    RESTRICTED RIGHTS LEGEND
  
 Use, reproduction and disclosure by the US Government is
 subject to restrictions as set forth in subparagraphs (a)
 and (c) of the Commercial Computer Software - Restricted
 Rights clause in FAR 52.227-19.
  
 Gaussian, Inc.
 340 Quinnipiac St., Bldg. 40, Wallingford CT 06492
  
  
 ---------------------------------------------------------------
 Warning -- This program may not be used in any manner that
 competes with the business of Gaussian, Inc. or will provide
 assistance to any competitor of Gaussian, Inc.  The licensee
 of this program is prohibited from giving any competitor of
 Gaussian, Inc. access to this program.  By using this program,
 the user acknowledges that Gaussian, Inc. is engaged in the
 business of creating and licensing software in the field of
 computational chemistry and represents and warrants to the
 licensee that it is not a competitor of Gaussian, Inc. and that
 it will not use this program in any manner prohibited above.
 ---------------------------------------------------------------
  

 Cite this work as:
 Gaussian 16, Revision B.01,
 M. J. Frisch, G. W. Trucks, H. B. Schlegel, G. E. Scuseria, 
 M. A. Robb, J. R. Cheeseman, G. Scalmani, V. Barone, 
 G. A. Petersson, H. Nakatsuji, X. Li, M. Caricato, A. V. Marenich, 
 J. Bloino, B. G. Janesko, R. Gomperts, B. Mennucci, H. P. Hratchian, 
 J. V. Ortiz, A. F. Izmaylov, J. L. Sonnenberg, D. Williams-Young, 
 F. Ding, F. Lipparini, F. Egidi, J. Goings, B. Peng, A. Petrone, 
 T. Henderson, D. Ranasinghe, V. G. Zakrzewski, J. Gao, N. Rega, 
 G. Zheng, W. Liang, M. Hada, M. Ehara, K. Toyota, R. Fukuda, 
 J. Hasegawa, M. Ishida, T. Nakajima, Y. Honda, O. Kitao, H. Nakai, 
 T. Vreven, K. Throssell, J. A. Montgomery, Jr., J. E. Peralta, 
 F. Ogliaro, M. J. Bearpark, J. J. Heyd, E. N. Brothers, K. N. Kudin, 
 V. N. Staroverov, T. A. Keith, R. Kobayashi, J. Normand, 
 K. Raghavachari, A. P. Rendell, J. C. Burant, S. S. Iyengar, 
 J. Tomasi, M. Cossi, J. M. Millam, M. Klene, C. Adamo, R. Cammi, 
 J. W. Ochterski, R. L. Martin, K. Morokuma, O. Farkas, 
 J. B. Foresman, and D. J. Fox, Gaussian, Inc., Wallingford CT, 2016.
 
 ******************************************
 Gaussian 16:  ES64L-G16RevB.01 20-Dec-2017
                28-Jan-2024 
 ******************************************
 %mem=200GB
 %nprocshared=32
 Will use up to   32 processors via shared memory.
 %Chk=checkpoint.chk
 --------------------------------------------------------
 #p scf=qc opt scrf=(smd,solvent=water) wB97XD/6-311(d,p)
 --------------------------------------------------------
 1/18=20,19=15,26=3,38=1/1,3;
 2/9=110,12=2,17=6,18=5,40=1/2;
 3/5=4,6=6,7=101,11=2,25=1,30=1,70=32201,71=1,72=1,74=-58/1,2,3;
 4//1;
 5/5=2,8=3,38=5,53=1/8;
 6/7=2,8=2,9=2,10=2,28=1/1;
 7//1,2,3,16;
 1/18=20,19=15,26=3/3(2);
 2/9=110/2;
 99//99;
 2/9=110/2;
 3/5=4,6=6,7=101,11=2,25=1,30=1,70=32205,71=1,72=1,74=-58/1,2,3;
 4/5=5,16=3,69=1/1;
 5/5=2,8=3,38=5,53=1/8;
 7//1,2,3,16;
 1/18=20,19=15,26=3/3(-5);
 2/9=110/2;
 6/7=2,8=2,9=2,10=2,19=2,28=1/1;
 99/9=1/99;
 Leave Link    1 at Sun Jan 28 22:03:06 2024, MaxMem= 26843545600 cpu:              39.1 elap:               1.3
 (Enter /share/software/user/restricted/gaussian/g16.B01/l101.exe)
 ----------
 oxygen_sim
 ----------
 Symbolic Z-matrix:
 Charge =-12 Multiplicity = 1
 C                    -28.85     3.5       0.11 
 H                    -28.1      4.27      0.22 
 C                    -30.17     3.82      0.08 
 H                    -30.49     4.85      0.15 
 C                    -31.17     2.8      -0.07 
 C                    -32.54     3.17     -0.1 
 O                    -32.99     4.33     -0.02 
 N                    -33.43     2.1      -0.24 
 C                    -33.09     0.75     -0.34 
 N                    -34.15    -0.04     -0.47 
 C                    -31.72     0.39     -0.31 
 C                    -31.3     -0.98     -0.41 
 H                    -32.05    -1.75     -0.52 
 C                    -29.98    -1.29     -0.37 
 H                    -29.66    -2.32     -0.44 
 C                    -28.98    -0.27     -0.23 
 C                    -27.06     1.78      0.04 
 N                    -26.       2.57      0.16 
 C                    -24.91     1.72      0.13 
 C                    -23.56     2.07      0.21 
 H                    -23.25     3.09      0.31 
 C                    -22.67     1.01      0.16 
 C                    -23.07    -0.35      0.03 
 C                    -24.42    -0.69     -0.05 
 H                    -24.74    -1.72     -0.16 
 C                    -25.32     0.37      0. 
 N                    -26.71     0.43     -0.06 
 C                    -27.61    -0.64     -0.19 
 O                    -27.16    -1.81     -0.27 
 C                    -28.43     2.13      0.01 
 C                    -29.37     1.1      -0.13 
 C                    -30.78     1.43     -0.17 
 C                    -16.69     2.38      0.41 
 H                    -15.94     3.16      0.49 
 C                    -18.       2.69      0.42 
 H                    -18.32     3.72      0.5 
 C                    -19.01     1.66      0.31 
 C                    -20.37     2.03      0.31 
 O                    -20.83     3.19      0.39 
 N                    -21.27     0.95      0.2 
 C                    -20.92    -0.39      0.1 
 N                    -21.98    -1.19      0. 
 C                    -19.55    -0.75      0.11 
 C                    -19.13    -2.11      0.02 
 H                    -19.88    -2.89     -0.06 
 C                    -17.8     -2.42      0.02 
 H                    -17.47    -3.45     -0.05 
 C                    -16.82    -1.39      0.12 
 C                    -15.43    -1.68      0.12 
 N                    -14.84    -2.86      0.05 
 C                    -13.49    -2.59      0.07 
 C                    -12.42    -3.5       0.03 
 H                    -12.59    -4.56     -0.04 
 C                    -11.13    -2.96      0.07 
 C                    -10.94    -1.56      0.15 
 C                    -11.98    -0.64      0.2 
 H                    -11.82     0.42      0.26 
 C                    -13.25    -1.2       0.16 
 N                    -14.52    -0.63      0.2 
 C                    -14.85     0.74      0.29 
 O                    -13.93     1.58      0.36 
 C                    -16.24     1.01      0.31 
 C                    -17.2     -0.03      0.22 
 C                    -18.61     0.3       0.21 
 C                    -5.24      0.72      0.22 
 H                    -4.61      1.61      0.25 
 C                    -6.59      0.83      0.23 
 H                    -7.07      1.79      0.28 
 C                    -7.42     -0.35      0.19 
 C                    -8.83     -0.2       0.21 
 O                    -9.45      0.89      0.27 
 N                    -9.55     -1.39      0.15 
 C                    -9.       -2.67      0.08 
 N                    -9.93     -3.62      0.03 
 C                    -7.6      -2.81      0.08 
 C                    -6.96     -4.1       0.02 
 H                    -7.59     -4.99     -0.02 
 C                    -5.61     -4.2       0.01 
 H                    -5.13     -5.17     -0.04 
 C                    -4.78     -3.03      0.05 
 C                    -3.2      -0.7       0.14 
 N                    -2.28      0.25      0.17 
 C                    -1.07     -0.41      0.13 
 C                     0.21      0.15      0.14 
 H                     0.36      1.21      0.17 
 C                     1.26     -0.76      0.1 
 C                     1.08     -2.16      0.05 
 C                    -0.2      -2.72      0.04 
 H                    -0.35     -3.79      0.01 
 C                    -1.25     -1.82      0.08 
 N                    -2.64     -1.98      0.09 
 C                    -3.37     -3.18      0.04 
 O                    -2.74     -4.27     -0.01 
 C                    -4.61     -0.57      0.16 
 C                    -5.38     -1.74      0.11 
 C                    -6.82     -1.64      0.13 
 C                     6.95      1.56      0.09 
 H                     7.57      2.45      0.09 
 C                     5.61      1.65      0.1 
 H                     5.12      2.62      0.13 
 C                     4.77      0.47      0.09 
 C                     3.37      0.62      0.12 
 O                     2.73      1.7       0.15 
 N                     2.65     -0.59      0.09 
 C                     3.2      -1.87      0.05 
 N                     2.29     -2.82      0.02 
 C                     4.62     -2.        0.04 
 C                     5.25     -3.28      0. 
 H                     4.63     -4.17     -0.01 
 C                     6.6      -3.38     -0.01 
 H                     7.09     -4.34     -0.03 
 C                     7.41     -2.2       0.01 
 C                     8.83     -2.27      0. 
 N                     9.6      -3.35     -0.02 
 N                     9.56     -1.08      0.02 
 C                     9.02      0.21      0.04 
 O                     9.81      1.19      0.05 
 C                     7.61      0.27      0.05 
 C                     6.82     -0.92      0.04 
 C                     5.38     -0.82      0.05 
 C                    -35.23     0.81     -0.45 
 C                    -36.59     0.51     -0.54 
 C                    -37.51     1.55     -0.49 
 C                    -37.09     2.88     -0.35 
 C                    -35.74     3.21     -0.25 
 C                    -34.83     2.16     -0.31 
 H                    -36.92    -0.52     -0.65 
 H                    -38.57     1.33     -0.57 
 H                    -37.83     3.67     -0.32 
 H                    -35.41     4.23     -0.14 
 C                     10.91    -1.45      0. 
 C                     12.08    -0.7       0.01 
 C                     10.9     -2.87     -0.02 
 C                     13.25    -1.44     -0.01 
 C                     12.09    -3.59     -0.03 
 H                     12.07     0.38      0.02 
 C                     13.27    -2.86     -0.02 
 N                     14.57    -3.33     -0.03 
 C                     15.34    -2.25     -0.02 
 C                     17.58    -3.34     -0.04 
 N                     14.59    -1.06     -0.01 
 C                     16.75    -2.16     -0.03 
 C                     15.12     0.23      0. 
 C                     18.92    -3.23     -0.04 
 C                     17.33    -0.88     -0.02 
 O                     14.33     1.21      0.02 
 H                     12.09    -4.68     -0.04 
 C                     16.54     0.3       0. 
 H                     17.1     -4.31     -0.04 
 C                     19.56    -1.94     -0.04 
 C                     18.77    -0.76     -0.02 
 C                     17.17     1.59      0. 
 C                     20.98    -1.87     -0.04 
 O                     21.77    -2.84     -0.05 
 H                     19.55    -4.11     -0.05 
 C                     19.35     0.53     -0.02 
 C                     18.52     1.7      -0.01 
 C                     20.76     0.61     -0.02 
 N                     21.51    -0.57     -0.04 
 C                     22.85    -0.19     -0.04 
 C                     24.03    -0.92     -0.05 
 H                     16.55     2.48      0.01 
 N                     21.52     1.7      -0.02 
 C                     22.82     1.23     -0.03 
 C                     25.21    -0.18     -0.05 
 C                     24.       1.98     -0.04 
 H                     19.       2.67      0. 
 H                     24.04    -2.       -0.05 
 C                     25.18     1.24     -0.04 
 N                     26.51    -0.64     -0.06 
 C                     27.27     0.44     -0.06 
 C                     29.5     -0.64     -0.07 
 N                     26.52     1.62     -0.05 
 C                     28.68     0.53     -0.06 
 C                     27.05     2.92     -0.05 
 C                     30.86    -0.53     -0.08 
 C                     29.26     1.81     -0.06 
 O                     26.26     3.89     -0.04 
 H                     23.98     3.06     -0.03 
 C                     28.46     3.       -0.06 
 H                     29.02    -1.61     -0.07 
 C                     31.47     0.76     -0.08 
 C                     30.7      1.93     -0.07 
 C                     29.11     4.29     -0.06 
 C                     32.7      3.38     -0.08 
 O                     33.33     4.47     -0.08 
 H                     31.48    -1.41     -0.09 
 C                     31.3      3.23     -0.07 
 C                     30.45     4.4      -0.06 
 C                     32.89     0.9      -0.09 
 N                     33.43     2.18     -0.09 
 C                     34.81     2.02     -0.09 
 C                     35.88     2.92     -0.1 
 H                     28.48     5.17     -0.05 
 N                     33.81    -0.05     -0.09 
 C                     35.01     0.62     -0.1 
 C                     37.16     2.38     -0.11 
 C                     36.31     0.11     -0.11 
 H                     30.93     5.37     -0.06 
 H                     35.72     3.98     -0.09 
 C                     37.37     1.       -0.11 
 H                     36.47    -0.97     -0.11 
 H                     38.01     3.05     -0.11 
 H                     38.39     0.61     -0.12 
 O                     11.38    -2.66      3.5 
 O                     10.44    -1.75      3.35 
 
 Add virtual bond connecting atoms O206       and N115       Dist= 6.63D+00.
 Add virtual bond connecting atoms O206       and C131       Dist= 6.42D+00.
 ITRead=  0  0  0  0  0  0  0  0  0  0  0  0  0  0  0  0  0  0  0  0
 ITRead=  0  0  0  0  0  0  0  0  0  0  0  0  0  0  0  0  0  0  0  0
 ITRead=  0  0  0  0  0  0  0  0  0  0  0  0  0  0  0  0  0  0  0  0
 ITRead=  0  0  0  0  0  0  0  0  0  0  0  0  0  0  0  0  0  0  0  0
 ITRead=  0  0  0  0  0  0  0  0  0  0  0  0  0  0  0  0  0  0  0  0
 ITRead=  0  0  0  0  0  0  0  0  0  0  0  0  0  0  0  0  0  0  0  0
 ITRead=  0  0  0  0  0  0  0  0  0  0  0  0  0  0  0  0  0  0  0  0
 ITRead=  0  0  0  0  0  0  0  0  0  0  0  0  0  0  0  0  0  0  0  0
 ITRead=  0  0  0  0  0  0  0  0  0  0  0  0  0  0  0  0  0  0  0  0
 ITRead=  0  0  0  0  0  0  0  0  0  0  0  0  0  0  0  0  0  0  0  0
 ITRead=  0  0  0  0  0  0
 MicOpt= -1 -1 -1 -1 -1 -1 -1 -1 -1 -1 -1 -1 -1 -1 -1 -1 -1 -1 -1 -1
 MicOpt= -1 -1 -1 -1 -1 -1 -1 -1 -1 -1 -1 -1 -1 -1 -1 -1 -1 -1 -1 -1
 MicOpt= -1 -1 -1 -1 -1 -1 -1 -1 -1 -1 -1 -1 -1 -1 -1 -1 -1 -1 -1 -1
 MicOpt= -1 -1 -1 -1 -1 -1 -1 -1 -1 -1 -1 -1 -1 -1 -1 -1 -1 -1 -1 -1
 MicOpt= -1 -1 -1 -1 -1 -1 -1 -1 -1 -1 -1 -1 -1 -1 -1 -1 -1 -1 -1 -1
 MicOpt= -1 -1 -1 -1 -1 -1 -1 -1 -1 -1 -1 -1 -1 -1 -1 -1 -1 -1 -1 -1
 MicOpt= -1 -1 -1 -1 -1 -1 -1 -1 -1 -1 -1 -1 -1 -1 -1 -1 -1 -1 -1 -1
 MicOpt= -1 -1 -1 -1 -1 -1 -1 -1 -1 -1 -1 -1 -1 -1 -1 -1 -1 -1 -1 -1
 MicOpt= -1 -1 -1 -1 -1 -1 -1 -1 -1 -1 -1 -1 -1 -1 -1 -1 -1 -1 -1 -1
 MicOpt= -1 -1 -1 -1 -1 -1 -1 -1 -1 -1 -1 -1 -1 -1 -1 -1 -1 -1 -1 -1
 MicOpt= -1 -1 -1 -1 -1 -1
 NAtoms=    206 NQM=      206 NQMF=       0 NMMI=      0 NMMIF=      0
                NMic=       0 NMicF=      0.
                    Isotopes and Nuclear Properties:
 (Nuclear quadrupole moments (NQMom) in fm**2, nuclear magnetic moments (NMagM)
  in nuclear magnetons)

  Atom         1           2           3           4           5           6           7           8           9          10
 IAtWgt=          12           1          12           1          12          12          16          14          12          14
 AtmWgt=  12.0000000   1.0078250  12.0000000   1.0078250  12.0000000  12.0000000  15.9949146  14.0030740  12.0000000  14.0030740
 NucSpn=           0           1           0           1           0           0           0           2           0           2
 AtZEff=  -0.0000000  -0.0000000  -0.0000000  -0.0000000  -0.0000000  -0.0000000  -0.0000000  -0.0000000  -0.0000000  -0.0000000
 NQMom=    0.0000000   0.0000000   0.0000000   0.0000000   0.0000000   0.0000000   0.0000000   2.0440000   0.0000000   2.0440000
 NMagM=    0.0000000   2.7928460   0.0000000   2.7928460   0.0000000   0.0000000   0.0000000   0.4037610   0.0000000   0.4037610
 AtZNuc=   6.0000000   1.0000000   6.0000000   1.0000000   6.0000000   6.0000000   8.0000000   7.0000000   6.0000000   7.0000000

  Atom        11          12          13          14          15          16          17          18          19          20
 IAtWgt=          12          12           1          12           1          12          12          14          12          12
 AtmWgt=  12.0000000  12.0000000   1.0078250  12.0000000   1.0078250  12.0000000  12.0000000  14.0030740  12.0000000  12.0000000
 NucSpn=           0           0           1           0           1           0           0           2           0           0
 AtZEff=  -0.0000000  -0.0000000  -0.0000000  -0.0000000  -0.0000000  -0.0000000  -0.0000000  -0.0000000  -0.0000000  -0.0000000
 NQMom=    0.0000000   0.0000000   0.0000000   0.0000000   0.0000000   0.0000000   0.0000000   2.0440000   0.0000000   0.0000000
 NMagM=    0.0000000   0.0000000   2.7928460   0.0000000   2.7928460   0.0000000   0.0000000   0.4037610   0.0000000   0.0000000
 AtZNuc=   6.0000000   6.0000000   1.0000000   6.0000000   1.0000000   6.0000000   6.0000000   7.0000000   6.0000000   6.0000000

  Atom        21          22          23          24          25          26          27          28          29          30
 IAtWgt=           1          12          12          12           1          12          14          12          16          12
 AtmWgt=   1.0078250  12.0000000  12.0000000  12.0000000   1.0078250  12.0000000  14.0030740  12.0000000  15.9949146  12.0000000
 NucSpn=           1           0           0           0           1           0           2           0           0           0
 AtZEff=  -0.0000000  -0.0000000  -0.0000000  -0.0000000  -0.0000000  -0.0000000  -0.0000000  -0.0000000  -0.0000000  -0.0000000
 NQMom=    0.0000000   0.0000000   0.0000000   0.0000000   0.0000000   0.0000000   2.0440000   0.0000000   0.0000000   0.0000000
 NMagM=    2.7928460   0.0000000   0.0000000   0.0000000   2.7928460   0.0000000   0.4037610   0.0000000   0.0000000   0.0000000
 AtZNuc=   1.0000000   6.0000000   6.0000000   6.0000000   1.0000000   6.0000000   7.0000000   6.0000000   8.0000000   6.0000000

  Atom        31          32          33          34          35          36          37          38          39          40
 IAtWgt=          12          12          12           1          12           1          12          12          16          14
 AtmWgt=  12.0000000  12.0000000  12.0000000   1.0078250  12.0000000   1.0078250  12.0000000  12.0000000  15.9949146  14.0030740
 NucSpn=           0           0           0           1           0           1           0           0           0           2
 AtZEff=  -0.0000000  -0.0000000  -0.0000000  -0.0000000  -0.0000000  -0.0000000  -0.0000000  -0.0000000  -0.0000000  -0.0000000
 NQMom=    0.0000000   0.0000000   0.0000000   0.0000000   0.0000000   0.0000000   0.0000000   0.0000000   0.0000000   2.0440000
 NMagM=    0.0000000   0.0000000   0.0000000   2.7928460   0.0000000   2.7928460   0.0000000   0.0000000   0.0000000   0.4037610
 AtZNuc=   6.0000000   6.0000000   6.0000000   1.0000000   6.0000000   1.0000000   6.0000000   6.0000000   8.0000000   7.0000000

  Atom        41          42          43          44          45          46          47          48          49          50
 IAtWgt=          12          14          12          12           1          12           1          12          12          14
 AtmWgt=  12.0000000  14.0030740  12.0000000  12.0000000   1.0078250  12.0000000   1.0078250  12.0000000  12.0000000  14.0030740
 NucSpn=           0           2           0           0           1           0           1           0           0           2
 AtZEff=  -0.0000000  -0.0000000  -0.0000000  -0.0000000  -0.0000000  -0.0000000  -0.0000000  -0.0000000  -0.0000000  -0.0000000
 NQMom=    0.0000000   2.0440000   0.0000000   0.0000000   0.0000000   0.0000000   0.0000000   0.0000000   0.0000000   2.0440000
 NMagM=    0.0000000   0.4037610   0.0000000   0.0000000   2.7928460   0.0000000   2.7928460   0.0000000   0.0000000   0.4037610
 AtZNuc=   6.0000000   7.0000000   6.0000000   6.0000000   1.0000000   6.0000000   1.0000000   6.0000000   6.0000000   7.0000000

  Atom        51          52          53          54          55          56          57          58          59          60
 IAtWgt=          12          12           1          12          12          12           1          12          14          12
 AtmWgt=  12.0000000  12.0000000   1.0078250  12.0000000  12.0000000  12.0000000   1.0078250  12.0000000  14.0030740  12.0000000
 NucSpn=           0           0           1           0           0           0           1           0           2           0
 AtZEff=  -0.0000000  -0.0000000  -0.0000000  -0.0000000  -0.0000000  -0.0000000  -0.0000000  -0.0000000  -0.0000000  -0.0000000
 NQMom=    0.0000000   0.0000000   0.0000000   0.0000000   0.0000000   0.0000000   0.0000000   0.0000000   2.0440000   0.0000000
 NMagM=    0.0000000   0.0000000   2.7928460   0.0000000   0.0000000   0.0000000   2.7928460   0.0000000   0.4037610   0.0000000
 AtZNuc=   6.0000000   6.0000000   1.0000000   6.0000000   6.0000000   6.0000000   1.0000000   6.0000000   7.0000000   6.0000000

  Atom        61          62          63          64          65          66          67          68          69          70
 IAtWgt=          16          12          12          12          12           1          12           1          12          12
 AtmWgt=  15.9949146  12.0000000  12.0000000  12.0000000  12.0000000   1.0078250  12.0000000   1.0078250  12.0000000  12.0000000
 NucSpn=           0           0           0           0           0           1           0           1           0           0
 AtZEff=  -0.0000000  -0.0000000  -0.0000000  -0.0000000  -0.0000000  -0.0000000  -0.0000000  -0.0000000  -0.0000000  -0.0000000
 NQMom=    0.0000000   0.0000000   0.0000000   0.0000000   0.0000000   0.0000000   0.0000000   0.0000000   0.0000000   0.0000000
 NMagM=    0.0000000   0.0000000   0.0000000   0.0000000   0.0000000   2.7928460   0.0000000   2.7928460   0.0000000   0.0000000
 AtZNuc=   8.0000000   6.0000000   6.0000000   6.0000000   6.0000000   1.0000000   6.0000000   1.0000000   6.0000000   6.0000000

  Atom        71          72          73          74          75          76          77          78          79          80
 IAtWgt=          16          14          12          14          12          12           1          12           1          12
 AtmWgt=  15.9949146  14.0030740  12.0000000  14.0030740  12.0000000  12.0000000   1.0078250  12.0000000   1.0078250  12.0000000
 NucSpn=           0           2           0           2           0           0           1           0           1           0
 AtZEff=  -0.0000000  -0.0000000  -0.0000000  -0.0000000  -0.0000000  -0.0000000  -0.0000000  -0.0000000  -0.0000000  -0.0000000
 NQMom=    0.0000000   2.0440000   0.0000000   2.0440000   0.0000000   0.0000000   0.0000000   0.0000000   0.0000000   0.0000000
 NMagM=    0.0000000   0.4037610   0.0000000   0.4037610   0.0000000   0.0000000   2.7928460   0.0000000   2.7928460   0.0000000
 AtZNuc=   8.0000000   7.0000000   6.0000000   7.0000000   6.0000000   6.0000000   1.0000000   6.0000000   1.0000000   6.0000000

  Atom        81          82          83          84          85          86          87          88          89          90
 IAtWgt=          12          14          12          12           1          12          12          12           1          12
 AtmWgt=  12.0000000  14.0030740  12.0000000  12.0000000   1.0078250  12.0000000  12.0000000  12.0000000   1.0078250  12.0000000
 NucSpn=           0           2           0           0           1           0           0           0           1           0
 AtZEff=  -0.0000000  -0.0000000  -0.0000000  -0.0000000  -0.0000000  -0.0000000  -0.0000000  -0.0000000  -0.0000000  -0.0000000
 NQMom=    0.0000000   2.0440000   0.0000000   0.0000000   0.0000000   0.0000000   0.0000000   0.0000000   0.0000000   0.0000000
 NMagM=    0.0000000   0.4037610   0.0000000   0.0000000   2.7928460   0.0000000   0.0000000   0.0000000   2.7928460   0.0000000
 AtZNuc=   6.0000000   7.0000000   6.0000000   6.0000000   1.0000000   6.0000000   6.0000000   6.0000000   1.0000000   6.0000000

  Atom        91          92          93          94          95          96          97          98          99         100
 IAtWgt=          14          12          16          12          12          12          12           1          12           1
 AtmWgt=  14.0030740  12.0000000  15.9949146  12.0000000  12.0000000  12.0000000  12.0000000   1.0078250  12.0000000   1.0078250
 NucSpn=           2           0           0           0           0           0           0           1           0           1
 AtZEff=  -0.0000000  -0.0000000  -0.0000000  -0.0000000  -0.0000000  -0.0000000  -0.0000000  -0.0000000  -0.0000000  -0.0000000
 NQMom=    2.0440000   0.0000000   0.0000000   0.0000000   0.0000000   0.0000000   0.0000000   0.0000000   0.0000000   0.0000000
 NMagM=    0.4037610   0.0000000   0.0000000   0.0000000   0.0000000   0.0000000   0.0000000   2.7928460   0.0000000   2.7928460
 AtZNuc=   7.0000000   6.0000000   8.0000000   6.0000000   6.0000000   6.0000000   6.0000000   1.0000000   6.0000000   1.0000000

  Atom       101         102         103         104         105         106         107         108         109         110
 IAtWgt=          12          12          16          14          12          14          12          12           1          12
 AtmWgt=  12.0000000  12.0000000  15.9949146  14.0030740  12.0000000  14.0030740  12.0000000  12.0000000   1.0078250  12.0000000
 NucSpn=           0           0           0           2           0           2           0           0           1           0
 AtZEff=  -0.0000000  -0.0000000  -0.0000000  -0.0000000  -0.0000000  -0.0000000  -0.0000000  -0.0000000  -0.0000000  -0.0000000
 NQMom=    0.0000000   0.0000000   0.0000000   2.0440000   0.0000000   2.0440000   0.0000000   0.0000000   0.0000000   0.0000000
 NMagM=    0.0000000   0.0000000   0.0000000   0.4037610   0.0000000   0.4037610   0.0000000   0.0000000   2.7928460   0.0000000
 AtZNuc=   6.0000000   6.0000000   8.0000000   7.0000000   6.0000000   7.0000000   6.0000000   6.0000000   1.0000000   6.0000000

  Atom       111         112         113         114         115         116         117         118         119         120
 IAtWgt=           1          12          12          14          14          12          16          12          12          12
 AtmWgt=   1.0078250  12.0000000  12.0000000  14.0030740  14.0030740  12.0000000  15.9949146  12.0000000  12.0000000  12.0000000
 NucSpn=           1           0           0           2           2           0           0           0           0           0
 AtZEff=  -0.0000000  -0.0000000  -0.0000000  -0.0000000  -0.0000000  -0.0000000  -0.0000000  -0.0000000  -0.0000000  -0.0000000
 NQMom=    0.0000000   0.0000000   0.0000000   2.0440000   2.0440000   0.0000000   0.0000000   0.0000000   0.0000000   0.0000000
 NMagM=    2.7928460   0.0000000   0.0000000   0.4037610   0.4037610   0.0000000   0.0000000   0.0000000   0.0000000   0.0000000
 AtZNuc=   1.0000000   6.0000000   6.0000000   7.0000000   7.0000000   6.0000000   8.0000000   6.0000000   6.0000000   6.0000000

  Atom       121         122         123         124         125         126         127         128         129         130
 IAtWgt=          12          12          12          12          12          12           1           1           1           1
 AtmWgt=  12.0000000  12.0000000  12.0000000  12.0000000  12.0000000  12.0000000   1.0078250   1.0078250   1.0078250   1.0078250
 NucSpn=           0           0           0           0           0           0           1           1           1           1
 AtZEff=  -0.0000000  -0.0000000  -0.0000000  -0.0000000  -0.0000000  -0.0000000  -0.0000000  -0.0000000  -0.0000000  -0.0000000
 NQMom=    0.0000000   0.0000000   0.0000000   0.0000000   0.0000000   0.0000000   0.0000000   0.0000000   0.0000000   0.0000000
 NMagM=    0.0000000   0.0000000   0.0000000   0.0000000   0.0000000   0.0000000   2.7928460   2.7928460   2.7928460   2.7928460
 AtZNuc=   6.0000000   6.0000000   6.0000000   6.0000000   6.0000000   6.0000000   1.0000000   1.0000000   1.0000000   1.0000000

  Atom       131         132         133         134         135         136         137         138         139         140
 IAtWgt=          12          12          12          12          12           1          12          14          12          12
 AtmWgt=  12.0000000  12.0000000  12.0000000  12.0000000  12.0000000   1.0078250  12.0000000  14.0030740  12.0000000  12.0000000
 NucSpn=           0           0           0           0           0           1           0           2           0           0
 AtZEff=  -0.0000000  -0.0000000  -0.0000000  -0.0000000  -0.0000000  -0.0000000  -0.0000000  -0.0000000  -0.0000000  -0.0000000
 NQMom=    0.0000000   0.0000000   0.0000000   0.0000000   0.0000000   0.0000000   0.0000000   2.0440000   0.0000000   0.0000000
 NMagM=    0.0000000   0.0000000   0.0000000   0.0000000   0.0000000   2.7928460   0.0000000   0.4037610   0.0000000   0.0000000
 AtZNuc=   6.0000000   6.0000000   6.0000000   6.0000000   6.0000000   1.0000000   6.0000000   7.0000000   6.0000000   6.0000000

  Atom       141         142         143         144         145         146         147         148         149         150
 IAtWgt=          14          12          12          12          12          16           1          12           1          12
 AtmWgt=  14.0030740  12.0000000  12.0000000  12.0000000  12.0000000  15.9949146   1.0078250  12.0000000   1.0078250  12.0000000
 NucSpn=           2           0           0           0           0           0           1           0           1           0
 AtZEff=  -0.0000000  -0.0000000  -0.0000000  -0.0000000  -0.0000000  -0.0000000  -0.0000000  -0.0000000  -0.0000000  -0.0000000
 NQMom=    2.0440000   0.0000000   0.0000000   0.0000000   0.0000000   0.0000000   0.0000000   0.0000000   0.0000000   0.0000000
 NMagM=    0.4037610   0.0000000   0.0000000   0.0000000   0.0000000   0.0000000   2.7928460   0.0000000   2.7928460   0.0000000
 AtZNuc=   7.0000000   6.0000000   6.0000000   6.0000000   6.0000000   8.0000000   1.0000000   6.0000000   1.0000000   6.0000000

  Atom       151         152         153         154         155         156         157         158         159         160
 IAtWgt=          12          12          12          16           1          12          12          12          14          12
 AtmWgt=  12.0000000  12.0000000  12.0000000  15.9949146   1.0078250  12.0000000  12.0000000  12.0000000  14.0030740  12.0000000
 NucSpn=           0           0           0           0           1           0           0           0           2           0
 AtZEff=  -0.0000000  -0.0000000  -0.0000000  -0.0000000  -0.0000000  -0.0000000  -0.0000000  -0.0000000  -0.0000000  -0.0000000
 NQMom=    0.0000000   0.0000000   0.0000000   0.0000000   0.0000000   0.0000000   0.0000000   0.0000000   2.0440000   0.0000000
 NMagM=    0.0000000   0.0000000   0.0000000   0.0000000   2.7928460   0.0000000   0.0000000   0.0000000   0.4037610   0.0000000
 AtZNuc=   6.0000000   6.0000000   6.0000000   8.0000000   1.0000000   6.0000000   6.0000000   6.0000000   7.0000000   6.0000000

  Atom       161         162         163         164         165         166         167         168         169         170
 IAtWgt=          12           1          14          12          12          12           1           1          12          14
 AtmWgt=  12.0000000   1.0078250  14.0030740  12.0000000  12.0000000  12.0000000   1.0078250   1.0078250  12.0000000  14.0030740
 NucSpn=           0           1           2           0           0           0           1           1           0           2
 AtZEff=  -0.0000000  -0.0000000  -0.0000000  -0.0000000  -0.0000000  -0.0000000  -0.0000000  -0.0000000  -0.0000000  -0.0000000
 NQMom=    0.0000000   0.0000000   2.0440000   0.0000000   0.0000000   0.0000000   0.0000000   0.0000000   0.0000000   2.0440000
 NMagM=    0.0000000   2.7928460   0.4037610   0.0000000   0.0000000   0.0000000   2.7928460   2.7928460   0.0000000   0.4037610
 AtZNuc=   6.0000000   1.0000000   7.0000000   6.0000000   6.0000000   6.0000000   1.0000000   1.0000000   6.0000000   7.0000000

  Atom       171         172         173         174         175         176         177         178         179         180
 IAtWgt=          12          12          14          12          12          12          12          16           1          12
 AtmWgt=  12.0000000  12.0000000  14.0030740  12.0000000  12.0000000  12.0000000  12.0000000  15.9949146   1.0078250  12.0000000
 NucSpn=           0           0           2           0           0           0           0           0           1           0
 AtZEff=  -0.0000000  -0.0000000  -0.0000000  -0.0000000  -0.0000000  -0.0000000  -0.0000000  -0.0000000  -0.0000000  -0.0000000
 NQMom=    0.0000000   0.0000000   2.0440000   0.0000000   0.0000000   0.0000000   0.0000000   0.0000000   0.0000000   0.0000000
 NMagM=    0.0000000   0.0000000   0.4037610   0.0000000   0.0000000   0.0000000   0.0000000   0.0000000   2.7928460   0.0000000
 AtZNuc=   6.0000000   6.0000000   7.0000000   6.0000000   6.0000000   6.0000000   6.0000000   8.0000000   1.0000000   6.0000000

  Atom       181         182         183         184         185         186         187         188         189         190
 IAtWgt=           1          12          12          12          12          16           1          12          12          12
 AtmWgt=   1.0078250  12.0000000  12.0000000  12.0000000  12.0000000  15.9949146   1.0078250  12.0000000  12.0000000  12.0000000
 NucSpn=           1           0           0           0           0           0           1           0           0           0
 AtZEff=  -0.0000000  -0.0000000  -0.0000000  -0.0000000  -0.0000000  -0.0000000  -0.0000000  -0.0000000  -0.0000000  -0.0000000
 NQMom=    0.0000000   0.0000000   0.0000000   0.0000000   0.0000000   0.0000000   0.0000000   0.0000000   0.0000000   0.0000000
 NMagM=    2.7928460   0.0000000   0.0000000   0.0000000   0.0000000   0.0000000   2.7928460   0.0000000   0.0000000   0.0000000
 AtZNuc=   1.0000000   6.0000000   6.0000000   6.0000000   6.0000000   8.0000000   1.0000000   6.0000000   6.0000000   6.0000000

  Atom       191         192         193         194         195         196         197         198         199         200
 IAtWgt=          14          12          12           1          14          12          12          12           1           1
 AtmWgt=  14.0030740  12.0000000  12.0000000   1.0078250  14.0030740  12.0000000  12.0000000  12.0000000   1.0078250   1.0078250
 NucSpn=           2           0           0           1           2           0           0           0           1           1
 AtZEff=  -0.0000000  -0.0000000  -0.0000000  -0.0000000  -0.0000000  -0.0000000  -0.0000000  -0.0000000  -0.0000000  -0.0000000
 NQMom=    2.0440000   0.0000000   0.0000000   0.0000000   2.0440000   0.0000000   0.0000000   0.0000000   0.0000000   0.0000000
 NMagM=    0.4037610   0.0000000   0.0000000   2.7928460   0.4037610   0.0000000   0.0000000   0.0000000   2.7928460   2.7928460
 AtZNuc=   7.0000000   6.0000000   6.0000000   1.0000000   7.0000000   6.0000000   6.0000000   6.0000000   1.0000000   1.0000000

  Atom       201         202         203         204         205         206
 IAtWgt=          12           1           1           1          16          16
 AtmWgt=  12.0000000   1.0078250   1.0078250   1.0078250  15.9949146  15.9949146
 NucSpn=           0           1           1           1           0           0
 AtZEff=  -0.0000000  -0.0000000  -0.0000000  -0.0000000  -0.0000000  -0.0000000
 NQMom=    0.0000000   0.0000000   0.0000000   0.0000000   0.0000000   0.0000000
 NMagM=    0.0000000   2.7928460   2.7928460   2.7928460   0.0000000   0.0000000
 AtZNuc=   6.0000000   1.0000000   1.0000000   1.0000000   8.0000000   8.0000000
 Leave Link  101 at Sun Jan 28 22:03:06 2024, MaxMem= 26843545600 cpu:              12.0 elap:               0.5
 (Enter /share/software/user/restricted/gaussian/g16.B01/l103.exe)

 GradGradGradGradGradGradGradGradGradGradGradGradGradGradGradGradGradGrad
 Berny optimization.
 Initialization pass.
                           ----------------------------
                           !    Initial Parameters    !
                           ! (Angstroms and Degrees)  !
 --------------------------                            --------------------------
 ! Name  Definition              Value          Derivative Info.                !
 --------------------------------------------------------------------------------
 ! R1    R(1,2)                  1.0805         estimate D2E/DX2                !
 ! R2    R(1,3)                  1.3586         estimate D2E/DX2                !
 ! R3    R(1,30)                 1.4364         estimate D2E/DX2                !
 ! R4    R(3,4)                  1.0808         estimate D2E/DX2                !
 ! R5    R(3,5)                  1.4363         estimate D2E/DX2                !
 ! R6    R(5,6)                  1.4194         estimate D2E/DX2                !
 ! R7    R(5,32)                 1.4279         estimate D2E/DX2                !
 ! R8    R(6,7)                  1.2468         estimate D2E/DX2                !
 ! R9    R(6,8)                  1.3988         estimate D2E/DX2                !
 ! R10   R(8,9)                  1.3957         estimate D2E/DX2                !
 ! R11   R(8,126)                1.403          estimate D2E/DX2                !
 ! R12   R(9,10)                 1.3284         estimate D2E/DX2                !
 ! R13   R(9,11)                 1.4168         estimate D2E/DX2                !
 ! R14   R(10,121)               1.3745         estimate D2E/DX2                !
 ! R15   R(11,12)                1.4364         estimate D2E/DX2                !
 ! R16   R(11,32)                1.4088         estimate D2E/DX2                !
 ! R17   R(12,13)                1.0805         estimate D2E/DX2                !
 ! R18   R(12,14)                1.3565         estimate D2E/DX2                !
 ! R19   R(14,15)                1.0808         estimate D2E/DX2                !
 ! R20   R(14,16)                1.4353         estimate D2E/DX2                !
 ! R21   R(16,28)                1.4196         estimate D2E/DX2                !
 ! R22   R(16,31)                1.4279         estimate D2E/DX2                !
 ! R23   R(17,18)                1.3274         estimate D2E/DX2                !
 ! R24   R(17,27)                1.3982         estimate D2E/DX2                !
 ! R25   R(17,30)                1.4143         estimate D2E/DX2                !
 ! R26   R(18,19)                1.3826         estimate D2E/DX2                !
 ! R27   R(19,20)                1.3969         estimate D2E/DX2                !
 ! R28   R(19,26)                1.4169         estimate D2E/DX2                !
 ! R29   R(20,21)                1.0707         estimate D2E/DX2                !
 ! R30   R(20,22)                1.385          estimate D2E/DX2                !
 ! R31   R(22,23)                1.4236         estimate D2E/DX2                !
 ! R32   R(22,40)                1.4019         estimate D2E/DX2                !
 ! R33   R(23,24)                1.3945         estimate D2E/DX2                !
 ! R34   R(23,42)                1.3764         estimate D2E/DX2                !
 ! R35   R(24,25)                1.0842         estimate D2E/DX2                !
 ! R36   R(24,26)                1.3914         estimate D2E/DX2                !
 ! R37   R(26,27)                1.3926         estimate D2E/DX2                !
 ! R38   R(27,28)                1.4042         estimate D2E/DX2                !
 ! R39   R(28,29)                1.2561         estimate D2E/DX2                !
 ! R40   R(30,31)                1.4015         estimate D2E/DX2                !
 ! R41   R(31,32)                1.4487         estimate D2E/DX2                !
 ! R42   R(33,34)                1.085          estimate D2E/DX2                !
 ! R43   R(33,35)                1.3462         estimate D2E/DX2                !
 ! R44   R(33,62)                1.4455         estimate D2E/DX2                !
 ! R45   R(35,36)                1.0815         estimate D2E/DX2                !
 ! R46   R(35,37)                1.4468         estimate D2E/DX2                !
 ! R47   R(37,38)                1.4094         estimate D2E/DX2                !
 ! R48   R(37,64)                1.4211         estimate D2E/DX2                !
 ! R49   R(38,39)                1.2504         estimate D2E/DX2                !
 ! R50   R(38,40)                1.4101         estimate D2E/DX2                !
 ! R51   R(40,41)                1.3886         estimate D2E/DX2                !
 ! R52   R(41,42)                1.3318         estimate D2E/DX2                !
 ! R53   R(41,43)                1.4165         estimate D2E/DX2                !
 ! R54   R(43,44)                1.4262         estimate D2E/DX2                !
 ! R55   R(43,64)                1.4128         estimate D2E/DX2                !
 ! R56   R(44,45)                1.085          estimate D2E/DX2                !
 ! R57   R(44,46)                1.3657         estimate D2E/DX2                !
 ! R58   R(46,47)                1.0838         estimate D2E/DX2                !
 ! R59   R(46,48)                1.4252         estimate D2E/DX2                !
 ! R60   R(48,49)                1.4199         estimate D2E/DX2                !
 ! R61   R(48,63)                1.4156         estimate D2E/DX2                !
 ! R62   R(49,50)                1.3211         estimate D2E/DX2                !
 ! R63   R(49,59)                1.3918         estimate D2E/DX2                !
 ! R64   R(50,51)                1.3769         estimate D2E/DX2                !
 ! R65   R(51,52)                1.4052         estimate D2E/DX2                !
 ! R66   R(51,58)                1.4134         estimate D2E/DX2                !
 ! R67   R(52,53)                1.0758         estimate D2E/DX2                !
 ! R68   R(52,54)                1.399          estimate D2E/DX2                !
 ! R69   R(54,55)                1.4151         estimate D2E/DX2                !
 ! R70   R(54,74)                1.3701         estimate D2E/DX2                !
 ! R71   R(55,56)                1.3894         estimate D2E/DX2                !
 ! R72   R(55,72)                1.4004         estimate D2E/DX2                !
 ! R73   R(56,57)                1.0737         estimate D2E/DX2                !
 ! R74   R(56,58)                1.3886         estimate D2E/DX2                !
 ! R75   R(58,59)                1.3926         estimate D2E/DX2                !
 ! R76   R(59,60)                1.4121         estimate D2E/DX2                !
 ! R77   R(60,61)                1.2478         estimate D2E/DX2                !
 ! R78   R(60,62)                1.4161         estimate D2E/DX2                !
 ! R79   R(62,63)                1.4182         estimate D2E/DX2                !
 ! R80   R(63,64)                1.4481         estimate D2E/DX2                !
 ! R81   R(65,66)                1.0908         estimate D2E/DX2                !
 ! R82   R(65,67)                1.3545         estimate D2E/DX2                !
 ! R83   R(65,94)                1.4369         estimate D2E/DX2                !
 ! R84   R(67,68)                1.0745         estimate D2E/DX2                !
 ! R85   R(67,69)                1.4432         estimate D2E/DX2                !
 ! R86   R(69,70)                1.4181         estimate D2E/DX2                !
 ! R87   R(69,96)                1.424          estimate D2E/DX2                !
 ! R88   R(70,71)                1.2554         estimate D2E/DX2                !
 ! R89   R(70,72)                1.3922         estimate D2E/DX2                !
 ! R90   R(72,73)                1.3949         estimate D2E/DX2                !
 ! R91   R(73,74)                1.3304         estimate D2E/DX2                !
 ! R92   R(73,75)                1.407          estimate D2E/DX2                !
 ! R93   R(75,76)                1.4413         estimate D2E/DX2                !
 ! R94   R(75,96)                1.4071         estimate D2E/DX2                !
 ! R95   R(76,77)                1.0911         estimate D2E/DX2                !
 ! R96   R(76,78)                1.3537         estimate D2E/DX2                !
 ! R97   R(78,79)                1.0834         estimate D2E/DX2                !
 ! R98   R(78,80)                1.4351         estimate D2E/DX2                !
 ! R99   R(80,92)                1.418          estimate D2E/DX2                !
 ! R100  R(80,95)                1.424          estimate D2E/DX2                !
 ! R101  R(81,82)                1.3228         estimate D2E/DX2                !
 ! R102  R(81,91)                1.398          estimate D2E/DX2                !
 ! R103  R(81,94)                1.4161         estimate D2E/DX2                !
 ! R104  R(82,83)                1.3789         estimate D2E/DX2                !
 ! R105  R(83,84)                1.3972         estimate D2E/DX2                !
 ! R106  R(83,90)                1.4223         estimate D2E/DX2                !
 ! R107  R(84,85)                1.071          estimate D2E/DX2                !
 ! R108  R(84,86)                1.39           estimate D2E/DX2                !
 ! R109  R(86,87)                1.4124         estimate D2E/DX2                !
 ! R110  R(86,104)               1.4004         estimate D2E/DX2                !
 ! R111  R(87,88)                1.3972         estimate D2E/DX2                !
 ! R112  R(87,106)               1.3786         estimate D2E/DX2                !
 ! R113  R(88,89)                1.0809         estimate D2E/DX2                !
 ! R114  R(88,90)                1.3835         estimate D2E/DX2                !
 ! R115  R(90,91)                1.3992         estimate D2E/DX2                !
 ! R116  R(91,92)                1.4055         estimate D2E/DX2                !
 ! R117  R(92,93)                1.26           estimate D2E/DX2                !
 ! R118  R(94,95)                1.4015         estimate D2E/DX2                !
 ! R119  R(95,96)                1.4436         estimate D2E/DX2                !
 ! R120  R(97,98)                1.0847         estimate D2E/DX2                !
 ! R121  R(97,99)                1.3431         estimate D2E/DX2                !
 ! R122  R(97,118)               1.4496         estimate D2E/DX2                !
 ! R123  R(99,100)               1.0872         estimate D2E/DX2                !
 ! R124  R(99,101)               1.4485         estimate D2E/DX2                !
 ! R125  R(101,102)              1.4083         estimate D2E/DX2                !
 ! R126  R(101,120)              1.4275         estimate D2E/DX2                !
 ! R127  R(102,103)              1.2557         estimate D2E/DX2                !
 ! R128  R(102,104)              1.4083         estimate D2E/DX2                !
 ! R129  R(104,105)              1.3937         estimate D2E/DX2                !
 ! R130  R(105,106)              1.3159         estimate D2E/DX2                !
 ! R131  R(105,107)              1.426          estimate D2E/DX2                !
 ! R132  R(107,108)              1.4272         estimate D2E/DX2                !
 ! R133  R(107,120)              1.4036         estimate D2E/DX2                !
 ! R134  R(108,109)              1.0847         estimate D2E/DX2                !
 ! R135  R(108,110)              1.3537         estimate D2E/DX2                !
 ! R136  R(110,111)              1.078          estimate D2E/DX2                !
 ! R137  R(110,112)              1.4314         estimate D2E/DX2                !
 ! R138  R(112,113)              1.4218         estimate D2E/DX2                !
 ! R139  R(112,119)              1.4098         estimate D2E/DX2                !
 ! R140  R(113,114)              1.3265         estimate D2E/DX2                !
 ! R141  R(113,115)              1.3962         estimate D2E/DX2                !
 ! R142  R(114,133)              1.3858         estimate D2E/DX2                !
 ! R143  R(115,116)              1.3986         estimate D2E/DX2                !
 ! R144  R(115,131)              1.3999         estimate D2E/DX2                !
 ! R145  R(115,206)              3.5089         estimate D2E/DX2                !
 ! R146  R(116,117)              1.2588         estimate D2E/DX2                !
 ! R147  R(116,118)              1.4113         estimate D2E/DX2                !
 ! R148  R(118,119)              1.4284         estimate D2E/DX2                !
 ! R149  R(119,120)              1.4435         estimate D2E/DX2                !
 ! R150  R(121,122)              1.3956         estimate D2E/DX2                !
 ! R151  R(121,126)              1.415          estimate D2E/DX2                !
 ! R152  R(122,123)              1.3894         estimate D2E/DX2                !
 ! R153  R(122,127)              1.0872         estimate D2E/DX2                !
 ! R154  R(123,124)              1.4017         estimate D2E/DX2                !
 ! R155  R(123,128)              1.0855         estimate D2E/DX2                !
 ! R156  R(124,125)              1.3933         estimate D2E/DX2                !
 ! R157  R(124,129)              1.0829         estimate D2E/DX2                !
 ! R158  R(125,126)              1.3908         estimate D2E/DX2                !
 ! R159  R(125,130)              1.0777         estimate D2E/DX2                !
 ! R160  R(131,132)              1.3898         estimate D2E/DX2                !
 ! R161  R(131,133)              1.4202         estimate D2E/DX2                !
 ! R162  R(131,206)              3.3961         estimate D2E/DX2                !
 ! R163  R(132,134)              1.3845         estimate D2E/DX2                !
 ! R164  R(132,136)              1.0801         estimate D2E/DX2                !
 ! R165  R(133,135)              1.3909         estimate D2E/DX2                !
 ! R166  R(134,137)              1.4202         estimate D2E/DX2                !
 ! R167  R(134,141)              1.3928         estimate D2E/DX2                !
 ! R168  R(135,137)              1.3876         estimate D2E/DX2                !
 ! R169  R(135,147)              1.09           estimate D2E/DX2                !
 ! R170  R(137,138)              1.3824         estimate D2E/DX2                !
 ! R171  R(138,139)              1.3264         estimate D2E/DX2                !
 ! R172  R(139,141)              1.4067         estimate D2E/DX2                !
 ! R173  R(139,142)              1.4129         estimate D2E/DX2                !
 ! R174  R(140,142)              1.4427         estimate D2E/DX2                !
 ! R175  R(140,144)              1.3445         estimate D2E/DX2                !
 ! R176  R(140,149)              1.0823         estimate D2E/DX2                !
 ! R177  R(141,143)              1.3947         estimate D2E/DX2                !
 ! R178  R(142,145)              1.4053         estimate D2E/DX2                !
 ! R179  R(143,146)              1.2589         estimate D2E/DX2                !
 ! R180  R(143,148)              1.4217         estimate D2E/DX2                !
 ! R181  R(144,150)              1.44           estimate D2E/DX2                !
 ! R182  R(144,155)              1.0823         estimate D2E/DX2                !
 ! R183  R(145,148)              1.4202         estimate D2E/DX2                !
 ! R184  R(145,151)              1.445          estimate D2E/DX2                !
 ! R185  R(148,152)              1.4356         estimate D2E/DX2                !
 ! R186  R(150,151)              1.4202         estimate D2E/DX2                !
 ! R187  R(150,153)              1.4217         estimate D2E/DX2                !
 ! R188  R(151,156)              1.4144         estimate D2E/DX2                !
 ! R189  R(152,157)              1.3545         estimate D2E/DX2                !
 ! R190  R(152,162)              1.0847         estimate D2E/DX2                !
 ! R191  R(153,154)              1.251          estimate D2E/DX2                !
 ! R192  R(153,159)              1.4039         estimate D2E/DX2                !
 ! R193  R(156,157)              1.4345         estimate D2E/DX2                !
 ! R194  R(156,158)              1.4123         estimate D2E/DX2                !
 ! R195  R(157,167)              1.0823         estimate D2E/DX2                !
 ! R196  R(158,159)              1.3983         estimate D2E/DX2                !
 ! R197  R(158,163)              1.3288         estimate D2E/DX2                !
 ! R198  R(159,160)              1.3928         estimate D2E/DX2                !
 ! R199  R(160,161)              1.3876         estimate D2E/DX2                !
 ! R200  R(160,164)              1.4204         estimate D2E/DX2                !
 ! R201  R(161,165)              1.3928         estimate D2E/DX2                !
 ! R202  R(161,168)              1.08           estimate D2E/DX2                !
 ! R203  R(163,164)              1.3824         estimate D2E/DX2                !
 ! R204  R(164,166)              1.3982         estimate D2E/DX2                !
 ! R205  R(165,169)              1.4204         estimate D2E/DX2                !
 ! R206  R(165,170)              1.379          estimate D2E/DX2                !
 ! R207  R(166,169)              1.3928         estimate D2E/DX2                !
 ! R208  R(166,179)              1.0802         estimate D2E/DX2                !
 ! R209  R(169,173)              1.3929         estimate D2E/DX2                !
 ! R210  R(170,171)              1.3206         estimate D2E/DX2                !
 ! R211  R(171,173)              1.3982         estimate D2E/DX2                !
 ! R212  R(171,174)              1.4129         estimate D2E/DX2                !
 ! R213  R(172,174)              1.4288         estimate D2E/DX2                !
 ! R214  R(172,176)              1.3645         estimate D2E/DX2                !
 ! R215  R(172,181)              1.0823         estimate D2E/DX2                !
 ! R216  R(173,175)              1.4039         estimate D2E/DX2                !
 ! R217  R(174,177)              1.4053         estimate D2E/DX2                !
 ! R218  R(175,178)              1.251          estimate D2E/DX2                !
 ! R219  R(175,180)              1.4123         estimate D2E/DX2                !
 ! R220  R(176,182)              1.427          estimate D2E/DX2                !
 ! R221  R(176,187)              1.0765         estimate D2E/DX2                !
 ! R222  R(177,180)              1.4339         estimate D2E/DX2                !
 ! R223  R(177,183)              1.445          estimate D2E/DX2                !
 ! R224  R(180,184)              1.4445         estimate D2E/DX2                !
 ! R225  R(182,183)              1.4007         estimate D2E/DX2                !
 ! R226  R(182,190)              1.4269         estimate D2E/DX2                !
 ! R227  R(183,188)              1.4318         estimate D2E/DX2                !
 ! R228  R(184,189)              1.3445         estimate D2E/DX2                !
 ! R229  R(184,194)              1.0823         estimate D2E/DX2                !
 ! R230  R(185,186)              1.259          estimate D2E/DX2                !
 ! R231  R(185,188)              1.408          estimate D2E/DX2                !
 ! R232  R(185,191)              1.4046         estimate D2E/DX2                !
 ! R233  R(188,189)              1.4462         estimate D2E/DX2                !
 ! R234  R(189,199)              1.0823         estimate D2E/DX2                !
 ! R235  R(190,191)              1.3892         estimate D2E/DX2                !
 ! R236  R(190,195)              1.3225         estimate D2E/DX2                !
 ! R237  R(191,192)              1.3892         estimate D2E/DX2                !
 ! R238  R(192,193)              1.3982         estimate D2E/DX2                !
 ! R239  R(192,196)              1.4142         estimate D2E/DX2                !
 ! R240  R(193,197)              1.3893         estimate D2E/DX2                !
 ! R241  R(193,200)              1.0721         estimate D2E/DX2                !
 ! R242  R(195,196)              1.3744         estimate D2E/DX2                !
 ! R243  R(196,198)              1.3965         estimate D2E/DX2                !
 ! R244  R(197,201)              1.3959         estimate D2E/DX2                !
 ! R245  R(197,203)              1.0823         estimate D2E/DX2                !
 ! R246  R(198,201)              1.3841         estimate D2E/DX2                !
 ! R247  R(198,202)              1.0918         estimate D2E/DX2                !
 ! R248  R(201,204)              1.0921         estimate D2E/DX2                !
 ! R249  R(205,206)              1.3169         estimate D2E/DX2                !
 ! A1    A(2,1,3)              120.5844         estimate D2E/DX2                !
 ! A2    A(2,1,30)             118.9344         estimate D2E/DX2                !
 ! A3    A(3,1,30)             120.478          estimate D2E/DX2                !
 ! A4    A(1,3,4)              120.7103         estimate D2E/DX2                !
 ! A5    A(1,3,5)              120.7645         estimate D2E/DX2                !
 ! A6    A(4,3,5)              118.5155         estimate D2E/DX2                !
 ! A7    A(3,5,6)              119.2812         estimate D2E/DX2                !
 ! A8    A(3,5,32)             119.9014         estimate D2E/DX2                !
 ! A9    A(6,5,32)             120.8127         estimate D2E/DX2                !
 ! A10   A(5,6,7)              126.1239         estimate D2E/DX2                !
 ! A11   A(5,6,8)              114.6349         estimate D2E/DX2                !
 ! A12   A(7,6,8)              119.2404         estimate D2E/DX2                !
 ! A13   A(6,8,9)              126.3031         estimate D2E/DX2                !
 ! A14   A(6,8,126)            127.3853         estimate D2E/DX2                !
 ! A15   A(9,8,126)            106.3115         estimate D2E/DX2                !
 ! A16   A(8,9,10)             112.8206         estimate D2E/DX2                !
 ! A17   A(8,9,11)             118.6718         estimate D2E/DX2                !
 ! A18   A(10,9,11)            128.5028         estimate D2E/DX2                !
 ! A19   A(9,10,121)           104.9391         estimate D2E/DX2                !
 ! A20   A(9,11,12)            121.5738         estimate D2E/DX2                !
 ! A21   A(9,11,32)            117.368          estimate D2E/DX2                !
 ! A22   A(12,11,32)           121.0573         estimate D2E/DX2                !
 ! A23   A(11,12,13)           118.9344         estimate D2E/DX2                !
 ! A24   A(11,12,14)           120.0288         estimate D2E/DX2                !
 ! A25   A(13,12,14)           121.0366         estimate D2E/DX2                !
 ! A26   A(12,14,15)           120.2631         estimate D2E/DX2                !
 ! A27   A(12,14,16)           121.2285         estimate D2E/DX2                !
 ! A28   A(15,14,16)           118.508          estimate D2E/DX2                !
 ! A29   A(14,16,28)           119.3337         estimate D2E/DX2                !
 ! A30   A(14,16,31)           119.8924         estimate D2E/DX2                !
 ! A31   A(28,16,31)           120.7738         estimate D2E/DX2                !
 ! A32   A(18,17,27)           112.4072         estimate D2E/DX2                !
 ! A33   A(18,17,30)           128.9136         estimate D2E/DX2                !
 ! A34   A(27,17,30)           118.6785         estimate D2E/DX2                !
 ! A35   A(17,18,19)           105.1712         estimate D2E/DX2                !
 ! A36   A(18,19,20)           127.3457         estimate D2E/DX2                !
 ! A37   A(18,19,26)           111.078          estimate D2E/DX2                !
 ! A38   A(20,19,26)           121.5762         estimate D2E/DX2                !
 ! A39   A(19,20,21)           121.5886         estimate D2E/DX2                !
 ! A40   A(19,20,22)           115.2895         estimate D2E/DX2                !
 ! A41   A(21,20,22)           123.1205         estimate D2E/DX2                !
 ! A42   A(20,22,23)           123.6359         estimate D2E/DX2                !
 ! A43   A(20,22,40)           132.3362         estimate D2E/DX2                !
 ! A44   A(23,22,40)           104.0242         estimate D2E/DX2                !
 ! A45   A(22,23,24)           120.6776         estimate D2E/DX2                !
 ! A46   A(22,23,42)           111.2539         estimate D2E/DX2                !
 ! A47   A(24,23,42)           128.0685         estimate D2E/DX2                !
 ! A48   A(23,24,25)           121.5481         estimate D2E/DX2                !
 ! A49   A(23,24,26)           116.001          estimate D2E/DX2                !
 ! A50   A(25,24,26)           122.4443         estimate D2E/DX2                !
 ! A51   A(19,26,24)           122.8185         estimate D2E/DX2                !
 ! A52   A(19,26,27)           104.5802         estimate D2E/DX2                !
 ! A53   A(24,26,27)           132.6007         estimate D2E/DX2                !
 ! A54   A(17,27,26)           106.7605         estimate D2E/DX2                !
 ! A55   A(17,27,28)           125.5846         estimate D2E/DX2                !
 ! A56   A(26,27,28)           127.6545         estimate D2E/DX2                !
 ! A57   A(16,28,27)           114.9942         estimate D2E/DX2                !
 ! A58   A(16,28,29)           125.9224         estimate D2E/DX2                !
 ! A59   A(27,28,29)           119.0809         estimate D2E/DX2                !
 ! A60   A(1,30,17)            121.1835         estimate D2E/DX2                !
 ! A61   A(1,30,31)            120.7838         estimate D2E/DX2                !
 ! A62   A(17,30,31)           118.0312         estimate D2E/DX2                !
 ! A63   A(16,31,30)           121.9334         estimate D2E/DX2                !
 ! A64   A(16,31,32)           118.8459         estimate D2E/DX2                !
 ! A65   A(30,31,32)           119.2204         estimate D2E/DX2                !
 ! A66   A(5,32,11)            122.2068         estimate D2E/DX2                !
 ! A67   A(5,32,31)            118.8459         estimate D2E/DX2                !
 ! A68   A(11,32,31)           118.947          estimate D2E/DX2                !
 ! A69   A(34,33,35)           120.4337         estimate D2E/DX2                !
 ! A70   A(34,33,62)           118.1153         estimate D2E/DX2                !
 ! A71   A(35,33,62)           121.4468         estimate D2E/DX2                !
 ! A72   A(33,35,36)           120.5155         estimate D2E/DX2                !
 ! A73   A(33,35,37)           120.9859         estimate D2E/DX2                !
 ! A74   A(36,35,37)           118.4953         estimate D2E/DX2                !
 ! A75   A(35,37,38)           119.1261         estimate D2E/DX2                !
 ! A76   A(35,37,64)           119.3518         estimate D2E/DX2                !
 ! A77   A(38,37,64)           121.5216         estimate D2E/DX2                !
 ! A78   A(37,38,39)           126.7624         estimate D2E/DX2                !
 ! A79   A(37,38,40)           114.5063         estimate D2E/DX2                !
 ! A80   A(39,38,40)           118.7305         estimate D2E/DX2                !
 ! A81   A(22,40,38)           127.361          estimate D2E/DX2                !
 ! A82   A(22,40,41)           106.9163         estimate D2E/DX2                !
 ! A83   A(38,40,41)           125.7212         estimate D2E/DX2                !
 ! A84   A(40,41,42)           112.6116         estimate D2E/DX2                !
 ! A85   A(40,41,43)           119.2434         estimate D2E/DX2                !
 ! A86   A(42,41,43)           128.1447         estimate D2E/DX2                !
 ! A87   A(23,42,41)           105.1929         estimate D2E/DX2                !
 ! A88   A(41,43,44)           121.783          estimate D2E/DX2                !
 ! A89   A(41,43,64)           117.071          estimate D2E/DX2                !
 ! A90   A(44,43,64)           121.1458         estimate D2E/DX2                !
 ! A91   A(43,44,45)           119.1168         estimate D2E/DX2                !
 ! A92   A(43,44,46)           120.2157         estimate D2E/DX2                !
 ! A93   A(45,44,46)           120.6635         estimate D2E/DX2                !
 ! A94   A(44,46,47)           120.8137         estimate D2E/DX2                !
 ! A95   A(44,46,48)           120.3716         estimate D2E/DX2                !
 ! A96   A(47,46,48)           118.8137         estimate D2E/DX2                !
 ! A97   A(46,48,49)           121.7028         estimate D2E/DX2                !
 ! A98   A(46,48,63)           120.9754         estimate D2E/DX2                !
 ! A99   A(49,48,63)           117.3216         estimate D2E/DX2                !
 ! A100  A(48,49,50)           128.2862         estimate D2E/DX2                !
 ! A101  A(48,49,59)           119.0769         estimate D2E/DX2                !
 ! A102  A(50,49,59)           112.6369         estimate D2E/DX2                !
 ! A103  A(49,50,51)           105.1858         estimate D2E/DX2                !
 ! A104  A(50,51,52)           128.2567         estimate D2E/DX2                !
 ! A105  A(50,51,58)           111.1157         estimate D2E/DX2                !
 ! A106  A(52,51,58)           120.6221         estimate D2E/DX2                !
 ! A107  A(51,52,53)           121.3051         estimate D2E/DX2                !
 ! A108  A(51,52,54)           116.8296         estimate D2E/DX2                !
 ! A109  A(53,52,54)           121.8614         estimate D2E/DX2                !
 ! A110  A(52,54,55)           120.4829         estimate D2E/DX2                !
 ! A111  A(52,54,74)           128.3758         estimate D2E/DX2                !
 ! A112  A(55,54,74)           111.1388         estimate D2E/DX2                !
 ! A113  A(54,55,56)           123.822          estimate D2E/DX2                !
 ! A114  A(54,55,72)           104.6774         estimate D2E/DX2                !
 ! A115  A(56,55,72)           131.4979         estimate D2E/DX2                !
 ! A116  A(55,56,57)           122.9682         estimate D2E/DX2                !
 ! A117  A(55,56,58)           114.6153         estimate D2E/DX2                !
 ! A118  A(57,56,58)           122.4159         estimate D2E/DX2                !
 ! A119  A(51,58,56)           123.6242         estimate D2E/DX2                !
 ! A120  A(51,58,59)           104.4476         estimate D2E/DX2                !
 ! A121  A(56,58,59)           131.9272         estimate D2E/DX2                !
 ! A122  A(49,59,58)           106.6086         estimate D2E/DX2                !
 ! A123  A(49,59,60)           125.6497         estimate D2E/DX2                !
 ! A124  A(58,59,60)           127.7389         estimate D2E/DX2                !
 ! A125  A(59,60,61)           118.9744         estimate D2E/DX2                !
 ! A126  A(59,60,62)           114.5366         estimate D2E/DX2                !
 ! A127  A(61,60,62)           126.4823         estimate D2E/DX2                !
 ! A128  A(33,62,60)           119.1604         estimate D2E/DX2                !
 ! A129  A(33,62,63)           119.2544         estimate D2E/DX2                !
 ! A130  A(60,62,63)           121.5817         estimate D2E/DX2                !
 ! A131  A(48,63,62)           121.8221         estimate D2E/DX2                !
 ! A132  A(48,63,64)           118.6723         estimate D2E/DX2                !
 ! A133  A(62,63,64)           119.4995         estimate D2E/DX2                !
 ! A134  A(37,64,43)           121.9334         estimate D2E/DX2                !
 ! A135  A(37,64,63)           119.4488         estimate D2E/DX2                !
 ! A136  A(43,64,63)           118.6162         estimate D2E/DX2                !
 ! A137  A(66,65,67)           120.6078         estimate D2E/DX2                !
 ! A138  A(66,65,94)           118.7129         estimate D2E/DX2                !
 ! A139  A(67,65,94)           120.6778         estimate D2E/DX2                !
 ! A140  A(65,67,68)           121.2078         estimate D2E/DX2                !
 ! A141  A(65,67,69)           120.4364         estimate D2E/DX2                !
 ! A142  A(68,67,69)           118.3514         estimate D2E/DX2                !
 ! A143  A(67,69,70)           119.0087         estimate D2E/DX2                !
 ! A144  A(67,69,96)           119.9692         estimate D2E/DX2                !
 ! A145  A(70,69,96)           121.0221         estimate D2E/DX2                !
 ! A146  A(69,70,71)           125.7004         estimate D2E/DX2                !
 ! A147  A(69,70,72)           115.0372         estimate D2E/DX2                !
 ! A148  A(71,70,72)           119.2617         estimate D2E/DX2                !
 ! A149  A(55,72,70)           128.1067         estimate D2E/DX2                !
 ! A150  A(55,72,73)           106.2587         estimate D2E/DX2                !
 ! A151  A(70,72,73)           125.6344         estimate D2E/DX2                !
 ! A152  A(72,73,74)           112.4275         estimate D2E/DX2                !
 ! A153  A(72,73,75)           118.9232         estimate D2E/DX2                !
 ! A154  A(74,73,75)           128.6475         estimate D2E/DX2                !
 ! A155  A(54,74,73)           105.4964         estimate D2E/DX2                !
 ! A156  A(73,75,76)           122.0666         estimate D2E/DX2                !
 ! A157  A(73,75,96)           117.9603         estimate D2E/DX2                !
 ! A158  A(76,75,96)           119.9712         estimate D2E/DX2                !
 ! A159  A(75,76,77)           118.3714         estimate D2E/DX2                !
 ! A160  A(75,76,78)           120.6137         estimate D2E/DX2                !
 ! A161  A(77,76,78)           121.0147         estimate D2E/DX2                !
 ! A162  A(76,78,79)           120.5504         estimate D2E/DX2                !
 ! A163  A(76,78,80)           121.0874         estimate D2E/DX2                !
 ! A164  A(79,78,80)           118.3586         estimate D2E/DX2                !
 ! A165  A(78,80,92)           119.2533         estimate D2E/DX2                !
 ! A166  A(78,80,95)           119.7399         estimate D2E/DX2                !
 ! A167  A(92,80,95)           121.0048         estimate D2E/DX2                !
 ! A168  A(82,81,91)           112.3189         estimate D2E/DX2                !
 ! A169  A(82,81,94)           128.7732         estimate D2E/DX2                !
 ! A170  A(91,81,94)           118.9067         estimate D2E/DX2                !
 ! A171  A(81,82,83)           105.4206         estimate D2E/DX2                !
 ! A172  A(82,83,84)           127.7253         estimate D2E/DX2                !
 ! A173  A(82,83,90)           111.3749         estimate D2E/DX2                !
 ! A174  A(84,83,90)           120.8991         estimate D2E/DX2                !
 ! A175  A(83,84,85)           121.6825         estimate D2E/DX2                !
 ! A176  A(83,84,86)           115.4312         estimate D2E/DX2                !
 ! A177  A(85,84,86)           122.8851         estimate D2E/DX2                !
 ! A178  A(84,86,87)           123.6185         estimate D2E/DX2                !
 ! A179  A(84,86,104)          132.1059         estimate D2E/DX2                !
 ! A180  A(87,86,104)          104.2747         estimate D2E/DX2                !
 ! A181  A(86,87,88)           120.9503         estimate D2E/DX2                !
 ! A182  A(86,87,106)          111.3122         estimate D2E/DX2                !
 ! A183  A(88,87,106)          127.7372         estimate D2E/DX2                !
 ! A184  A(87,88,89)           121.6084         estimate D2E/DX2                !
 ! A185  A(87,88,90)           115.7439         estimate D2E/DX2                !
 ! A186  A(89,88,90)           122.6463         estimate D2E/DX2                !
 ! A187  A(83,90,88)           123.357          estimate D2E/DX2                !
 ! A188  A(83,90,91)           103.8174         estimate D2E/DX2                !
 ! A189  A(88,90,91)           132.825          estimate D2E/DX2                !
 ! A190  A(81,91,90)           107.0667         estimate D2E/DX2                !
 ! A191  A(81,91,92)           125.095          estimate D2E/DX2                !
 ! A192  A(90,91,92)           127.8321         estimate D2E/DX2                !
 ! A193  A(80,92,91)           115.2074         estimate D2E/DX2                !
 ! A194  A(80,92,93)           126.0855         estimate D2E/DX2                !
 ! A195  A(91,92,93)           118.707          estimate D2E/DX2                !
 ! A196  A(65,94,81)           121.303          estimate D2E/DX2                !
 ! A197  A(65,94,95)           120.6688         estimate D2E/DX2                !
 ! A198  A(81,94,95)           118.0268         estimate D2E/DX2                !
 ! A199  A(80,95,94)           121.7537         estimate D2E/DX2                !
 ! A200  A(80,95,96)           118.9235         estimate D2E/DX2                !
 ! A201  A(94,95,96)           119.3211         estimate D2E/DX2                !
 ! A202  A(69,96,75)           121.4135         estimate D2E/DX2                !
 ! A203  A(69,96,95)           118.9235         estimate D2E/DX2                !
 ! A204  A(75,96,95)           119.6613         estimate D2E/DX2                !
 ! A205  A(98,97,99)           121.0188         estimate D2E/DX2                !
 ! A206  A(98,97,118)          118.0306         estimate D2E/DX2                !
 ! A207  A(99,97,118)          120.9377         estimate D2E/DX2                !
 ! A208  A(97,99,100)          120.6431         estimate D2E/DX2                !
 ! A209  A(97,99,101)          121.598          estimate D2E/DX2                !
 ! A210  A(100,99,101)         117.7536         estimate D2E/DX2                !
 ! A211  A(99,101,102)         119.3125         estimate D2E/DX2                !
 ! A212  A(99,101,120)         119.2457         estimate D2E/DX2                !
 ! A213  A(102,101,120)        121.4419         estimate D2E/DX2                !
 ! A214  A(101,102,103)        126.7806         estimate D2E/DX2                !
 ! A215  A(101,102,104)        114.5984         estimate D2E/DX2                !
 ! A216  A(103,102,104)        118.6121         estimate D2E/DX2                !
 ! A217  A(86,104,102)         127.705          estimate D2E/DX2                !
 ! A218  A(86,104,105)         106.2847         estimate D2E/DX2                !
 ! A219  A(102,104,105)        126.0097         estimate D2E/DX2                !
 ! A220  A(104,105,106)        113.0038         estimate D2E/DX2                !
 ! A221  A(104,105,107)        118.4829         estimate D2E/DX2                !
 ! A222  A(106,105,107)        128.5125         estimate D2E/DX2                !
 ! A223  A(87,106,105)         105.1204         estimate D2E/DX2                !
 ! A224  A(105,107,108)        121.4352         estimate D2E/DX2                !
 ! A225  A(105,107,120)        117.5488         estimate D2E/DX2                !
 ! A226  A(108,107,120)        121.0088         estimate D2E/DX2                !
 ! A227  A(107,108,109)        118.9351         estimate D2E/DX2                !
 ! A228  A(107,108,110)        120.4418         estimate D2E/DX2                !
 ! A229  A(109,108,110)        120.6189         estimate D2E/DX2                !
 ! A230  A(108,110,111)        121.2792         estimate D2E/DX2                !
 ! A231  A(108,110,112)        120.2199         estimate D2E/DX2                !
 ! A232  A(111,110,112)        118.5007         estimate D2E/DX2                !
 ! A233  A(110,112,113)        121.6342         estimate D2E/DX2                !
 ! A234  A(110,112,119)        120.7947         estimate D2E/DX2                !
 ! A235  A(113,112,119)        117.5711         estimate D2E/DX2                !
 ! A236  A(112,113,114)        128.3111         estimate D2E/DX2                !
 ! A237  A(112,113,115)        118.6941         estimate D2E/DX2                !
 ! A238  A(114,113,115)        112.9939         estimate D2E/DX2                !
 ! A239  A(113,114,133)        105.22           estimate D2E/DX2                !
 ! A240  A(113,115,116)        125.7648         estimate D2E/DX2                !
 ! A241  A(113,115,131)        106.1843         estimate D2E/DX2                !
 ! A242  A(113,115,206)         88.9673         estimate D2E/DX2                !
 ! A243  A(116,115,131)        128.047          estimate D2E/DX2                !
 ! A244  A(116,115,206)        105.0331         estimate D2E/DX2                !
 ! A245  A(115,116,117)        118.4158         estimate D2E/DX2                !
 ! A246  A(115,116,118)        115.154          estimate D2E/DX2                !
 ! A247  A(117,116,118)        126.43           estimate D2E/DX2                !
 ! A248  A(97,118,116)         119.5319         estimate D2E/DX2                !
 ! A249  A(97,118,119)         119.3253         estimate D2E/DX2                !
 ! A250  A(116,118,119)        121.1371         estimate D2E/DX2                !
 ! A251  A(112,119,118)        121.6756         estimate D2E/DX2                !
 ! A252  A(112,119,120)        118.721          estimate D2E/DX2                !
 ! A253  A(118,119,120)        119.6015         estimate D2E/DX2                !
 ! A254  A(101,120,107)        121.9063         estimate D2E/DX2                !
[...]
                    CP:  3.00D+00  3.00D+00  3.00D+00
     ILin=14 X=4.096D+03 Y=-7.195170742611D+03 DE= 3.65D-03 F=  1.78D-06
     No minimum found in polynomial.
 RMSU=  2.95D-07    CP:  1.00D+00  3.00D+00  3.00D+00  2.94D+00  9.52D-01
                    CP: -7.35D-04  3.00D+00  3.00D+00  3.00D+00  3.00D+00
                    CP:  3.00D+00  3.00D+00  3.00D+00  3.00D+00  3.00D+00
                    CP:  3.00D+00  3.00D+00  3.00D+00  3.00D+00
     ILin=15 X=8.192D+03 Y=-7.195159790586D+03 DE= 1.46D-02 F=  3.57D-06
     No minimum found in polynomial.
 Restarting incremental Fock formation.
     ILin=16 X=1.638D+04 Y=-7.195115981536D+03 DE= 5.84D-02 F=  7.13D-06
     No minimum found in polynomial.
 The polynomial fit failed.  Using point  1.
     An  expanding polynomial of degree 16 produced  0.0000
 Search did not lower the energy significantly.
 Scaled steepest descent with Shift=0.075 failed.
     ILin= 1 X=0.000D+00 Y=-7.195174392234D+03 DE= 0.00D+00 F= -3.62D-10
 RMSU=  2.84D-04    CP:  9.94D-01
     ILin= 2 X=1.000D+00 Y=-7.195174392233D+03 DE= 8.08D-10 F=  6.10D-11 OKLS=F
 RMSU=  4.08D-09    CP:  9.94D-01  1.00D+00
     ILin= 3 X=2.000D+00 Y=-7.195174392233D+03 DE= 8.08D-10 F=  4.84D-10
     No minimum found in polynomial.
 RMSU=  4.90D-14    CP:  9.94D-01  1.00D+00  3.00D+00
     ILin= 4 X=4.000D+00 Y=-7.195174392231D+03 DE= 2.79D-09 F=  1.33D-09
 QCLLim is confused:  Bigger=T Turned=T
 NLin=  4 IMin12=  1  2 I12=  0  2 IX=  1 XLMin= 0.000D+00 XLMax= 0.000D+00
 X = 0.000D+00 1.000D+00 2.000D+00 4.000D+00
 DE= 0.000D+00 8.076D-10 8.076D-10 2.787D-09
     Reject polynomial IMin12=  1  2 Big=T Turn=T Min= 2.096D+00 FVal=-7.195174392233D+03 Lims=  0.00D+00  1.00D+00
 RMSU=  1.63D-08    CP:  9.94D-01  1.00D+00  3.00D+00  3.00D+00
     ILin= 5 X=8.000D+00 Y=-7.195174392222D+03 DE= 1.19D-08 F=  3.02D-09
 QCLLim is confused:  Bigger=T Turned=T
 NLin=  5 IMin12=  1  2 I12=  0  2 IX=  1 XLMin= 0.000D+00 XLMax= 0.000D+00
 X = 0.000D+00 1.000D+00 2.000D+00 4.000D+00 8.000D+00
 DE= 0.000D+00 8.076D-10 8.076D-10 2.787D-09 1.194D-08
     Reject polynomial IMin12=  1  2 Big=T Turn=T Min= 1.833D+00 FVal=-7.195174392233D+03 Lims=  0.00D+00  1.00D+00
 RMSU=  9.80D-13    CP:  9.94D-01  9.99D-01  3.00D+00  3.00D+00  3.00D+00
     ILin= 6 X=1.600D+01 Y=-7.195174392185D+03 DE= 4.94D-08 F=  6.41D-09
 QCLLim is confused:  Bigger=T Turned=T
 NLin=  6 IMin12=  1  2 I12=  0  2 IX=  1 XLMin= 0.000D+00 XLMax= 0.000D+00
 X = 0.000D+00 1.000D+00 2.000D+00 4.000D+00 8.000D+00 1.600D+01
 DE= 0.000D+00 8.076D-10 8.076D-10 2.787D-09 1.194D-08 4.941D-08
     Reject polynomial IMin12=  1  2 Big=T Turn=T Min= 1.762D+00 FVal=-7.195174392233D+03 Lims=  0.00D+00  1.00D+00
 RMSU=  6.51D-08    CP:  9.94D-01  9.98D-01  3.00D+00  3.00D+00  3.00D+00
                    CP:  3.00D+00
     ILin= 7 X=3.200D+01 Y=-7.195174392028D+03 DE= 2.06D-07 F=  1.32D-08
 QCLLim is confused:  Bigger=T Turned=T
 NLin=  7 IMin12=  1  2 I12=  0  2 IX=  1 XLMin= 0.000D+00 XLMax= 0.000D+00
 X = 0.000D+00 1.000D+00 2.000D+00 4.000D+00 8.000D+00 1.600D+01 3.200D+01
 DE= 0.000D+00 8.076D-10 8.076D-10 2.787D-09 1.194D-08 4.941D-08 2.060D-07
     Reject polynomial IMin12=  1  2 Big=T Turn=T Min= 1.707D+00 FVal=-7.195174392233D+03 Lims=  0.00D+00  1.00D+00
 RMSU=  1.65D-11    CP:  9.94D-01  9.96D-01  3.00D+00  3.00D+00  3.00D+00
                    CP:  3.00D+00  2.99D+00
     ILin= 8 X=6.400D+01 Y=-7.195174391390D+03 DE= 8.44D-07 F=  2.67D-08
     No minimum found in polynomial.
 RMSU=  2.58D-07    CP:  9.94D-01  9.93D-01  3.00D+00  3.00D+00  3.00D+00
                    CP:  3.00D+00  3.00D+00  3.00D+00
     ILin= 9 X=1.280D+02 Y=-7.195174388813D+03 DE= 3.42D-06 F=  5.38D-08
 QCLLim is confused:  Bigger=T Turned=T
 NLin=  9 IMin12=  1  2 I12=  0  2 IX=  1 XLMin= 0.000D+00 XLMax= 0.000D+00
 X = 0.000D+00 1.000D+00 2.000D+00 4.000D+00 8.000D+00 1.600D+01 3.200D+01 6.400D+01 1.280D+02
 DE= 0.000D+00 8.076D-10 8.076D-10 2.787D-09 1.194D-08 4.941D-08 2.060D-07 8.441D-07 3.421D-06
     Reject polynomial IMin12=  1  2 Big=T Turn=T Min= 5.928D+01 FVal=-7.195174436050D+03 Lims=  0.00D+00  1.00D+00
 RMSU=  2.68D-10    CP:  9.94D-01  9.85D-01  3.00D+00  3.00D+00  3.00D+00
                    CP:  3.00D+00  3.00D+00  3.00D+00  2.98D+00
     ILin=10 X=2.560D+02 Y=-7.195174378460D+03 DE= 1.38D-05 F=  1.08D-07
     No minimum found in polynomial.
 RMSU=  9.91D-07    CP:  9.94D-01  9.71D-01  3.00D+00  3.00D+00  3.00D+00
                    CP:  3.00D+00  3.00D+00  3.00D+00  3.00D+00  3.00D+00
     ILin=11 X=5.120D+02 Y=-7.195174336953D+03 DE= 5.53D-05 F=  2.16D-07
     No minimum found in polynomial.
 RMSU=  4.38D-09    CP:  9.94D-01  9.41D-01  3.00D+00  3.00D+00  3.00D+00
                    CP:  3.00D+00  3.00D+00  3.00D+00  3.00D+00  3.00D+00
                    CP:  2.91D+00
     ILin=12 X=1.024D+03 Y=-7.195174170734D+03 DE= 2.22D-04 F=  4.33D-07
     No minimum found in polynomial.
 RMSU=  3.32D-06    CP:  9.94D-01  8.81D-01  3.00D+00  3.00D+00  3.00D+00
                    CP:  3.00D+00  3.00D+00  3.00D+00  3.00D+00  3.00D+00
                    CP:  3.00D+00  3.00D+00
     ILin=13 X=2.048D+03 Y=-7.195173505473D+03 DE= 8.87D-04 F=  8.66D-07
     No minimum found in polynomial.
 RMSU=  7.61D-08    CP:  9.95D-01  7.61D-01  3.00D+00  3.00D+00  3.00D+00
                    CP:  3.00D+00  3.00D+00  3.00D+00  3.00D+00  3.00D+00
                    CP:  3.00D+00  3.00D+00  2.59D+00
     ILin=14 X=4.096D+03 Y=-7.195170843652D+03 DE= 3.55D-03 F=  1.73D-06
     No minimum found in polynomial.
 RMSU=  3.04D-06    CP:  9.96D-01  5.18D-01  3.00D+00  3.00D+00  3.00D+00
                    CP:  3.00D+00  3.00D+00  3.00D+00  3.00D+00  3.00D+00
                    CP:  3.00D+00  3.00D+00  3.00D+00  3.00D+00
     ILin=15 X=8.192D+03 Y=-7.195160194809D+03 DE= 1.42D-02 F=  3.47D-06
     No minimum found in polynomial.
 RMSU=  1.96D-06    CP:  1.00D+00  1.62D-02  3.00D+00  3.00D+00  3.00D+00
                    CP:  3.00D+00  3.00D+00  3.00D+00  3.00D+00  3.00D+00
                    CP:  1.22D-01  3.00D+00  2.63D-03  3.00D+00  5.06D-02
     ILin=16 X=1.638D+04 Y=-7.195117598452D+03 DE= 5.68D-02 F=  6.93D-06
     No minimum found in polynomial.
 The polynomial fit failed.  Using point  1.
     An  expanding polynomial of degree 16 produced  0.0000
 Search did not lower the energy significantly.
 No lower point found -- switch to steepest descent.
     ILin= 1 X=0.000D+00 Y=-7.195174392234D+03 DE= 0.00D+00 F= -3.49D-09
 RMSU=  2.74D-08    CP:  9.94D-01  1.00D+00  1.02D+00  3.00D+00  9.80D-06
                    CP:  3.00D+00  9.84D-06  3.00D+00  1.00D-05  3.00D+00
                    CP:  1.02D-05  2.84D+00  4.18D-09  8.63D-05  2.86D-07
                    CP:  8.61D-06
     ILin= 2 X=1.000D+00 Y=-7.195174392165D+03 DE= 6.91D-08 F=  1.39D-07 OKLS=T
     Reject lnstep IMin12=  1  2 Big=F Turn=F Min= 2.332D-02 FVal=-7.195174392234D+03 Lims=  0.00D+00  1.00D+00
 RMSU=  4.34D-13    CP:  9.94D-01  1.00D+00 -9.53D-01  3.00D+00  2.28D-07
                    CP:  3.00D+00  2.27D-07  3.00D+00  1.95D-07  9.61D-01
                    CP:  1.78D-11  9.78D-06  9.89D-11  2.04D-06  6.77D-09
                    CP:  2.04D-07  2.33D-02
     ILin= 3 X=2.332D-02 Y=-7.195174392233D+03 DE= 6.18D-10 F= -1.58D-10
 RMSU=  2.43D-14    CP:  9.94D-01  1.00D+00 -9.77D-01  3.00D+00  1.14D-07
                    CP:  3.00D+00  1.13D-07  3.00D+00  7.75D-08  3.83D-01
                    CP:  8.90D-12  4.89D-06  4.95D-11  1.02D-06  3.39D-09
                    CP:  1.02D-07  1.17D-02  5.37D-01
     ILin= 4 X=1.166D-02 Y=-7.195174392233D+03 DE= 1.05D-09 F= -1.82D-09
 RMSU=  1.10D-16    CP:  9.94D-01  1.00D+00 -9.88D-01  3.00D+00  5.70D-08
                    CP:  3.00D+00  5.51D-08  3.00D+00  1.89D-08  9.34D-02
                    CP:  4.47D-12  2.45D-06  2.48D-11  5.11D-07  1.70D-09
                    CP:  5.12D-08  5.83D-03  3.05D-01  1.50D+00
     ILin= 5 X=5.829D-03 Y=-7.195174392233D+03 DE= 1.14D-09 F= -2.66D-09
 Restarting incremental Fock formation.
     ILin= 6 X=2.915D-03 Y=-7.195174392233D+03 DE= 1.01D-09 F= -3.07D-09
 RMSU=  6.79D-11    CP:  1.00D+00
     ILin= 7 X=1.457D-03 Y=-7.195174392233D+03 DE= 1.16D-09 F= -3.28D-09
 RMSU=  1.97D-17    CP:  1.00D+00  1.50D+00
 FoF2E skips out because all densities are zero.
     ILin= 8 X=7.287D-04 Y=-7.195174392233D+03 DE= 1.06D-09 F= -3.38D-09
 RMSU=  3.89D-18    CP:  1.00D+00  1.75D+00  9.76D-01
 FoF2E skips out because all densities are zero.
     ILin= 9 X=3.643D-04 Y=-7.195174392233D+03 DE= 1.08D-09 F= -3.44D-09
 RMSU=  8.44D-18    CP:  1.00D+00  1.87D+00 -2.78D-01  1.03D+00
 FoF2E skips out because all densities are zero.
     ILin=10 X=1.822D-04 Y=-7.195174392233D+03 DE= 1.10D-09 F= -3.46D-09
 RMSU=  2.85D-18    CP:  1.00D+00  1.94D+00  3.29D-01  9.73D-01  6.13D-01
 FoF2E skips out because all densities are zero.
     ILin=11 X=9.108D-05 Y=-7.195174392233D+03 DE= 7.79D-10 F= -3.48D-09
 RMSU=  2.64D-18    CP:  1.00D+00  1.97D+00  3.78D-01  1.05D+00  5.88D-01
                    CP:  3.84D-01
 FoF2E skips out because all densities are zero.
     ILin=12 X=4.554D-05 Y=-7.195174392233D+03 DE= 6.77D-10 F= -3.48D-09
 RMSU=  4.28D-18    CP:  1.00D+00  1.98D+00 -1.28D+00  1.44D+00  1.58D+00
                    CP:  5.24D-01  2.98D-01
 FoF2E skips out because all densities are zero.
     ILin=13 X=2.277D-05 Y=-7.195174392233D+03 DE= 9.17D-10 F= -3.48D-09
 RMSU=  2.67D-18    CP:  1.00D+00  1.99D+00 -8.39D-01  1.36D+00  1.33D+00
                    CP:  5.43D-01  2.85D-01  5.16D-01
 FoF2E skips out because all densities are zero.
     ILin=14 X=1.139D-05 Y=-7.195174392233D+03 DE= 1.14D-09 F= -3.49D-09
 RMSU=  2.30D-18    CP:  1.00D+00  2.00D+00 -5.86D-02  1.18D+00  8.79D-01
                    CP:  4.54D-01  3.23D-01  2.31D-01  1.11D-01
 FoF2E skips out because all densities are zero.
     ILin=15 X=5.693D-06 Y=-7.195174392233D+03 DE= 8.15D-10 F= -3.49D-09
 RMSU=  2.32D-18    CP:  1.00D+00  2.00D+00 -7.52D-01  1.33D+00  1.30D+00
                    CP:  5.18D-01  3.75D-01  5.12D-01  2.87D-01  4.83D-02
 FoF2E skips out because all densities are zero.
     ILin=16 X=2.846D-06 Y=-7.195174392233D+03 DE= 1.02D-09 F= -3.49D-09
 The polynomial fit failed.  Using point  1.
     A contracting polynomial of degree 16 produced  0.0000
 Search did not lower the energy significantly.
     ILin= 1 X=0.000D+00 Y=-7.195174392234D+03 DE= 0.00D+00 F= -3.49D-08
 RMSU=  4.66D-07    CP:  1.00D+00 -3.00D+00  3.00D+00  3.00D+00  3.00D+00
                    CP:  3.00D+00  3.00D+00 -3.00D+00  3.00D+00  3.00D+00
                    CP: -3.00D+00
     ILin= 2 X=1.000D+00 Y=-7.195174385126D+03 DE= 7.11D-06 F=  1.42D-05 OKLS=T
     Reject lnstep IMin12=  1  2 Big=F Turn=F Min= 2.441D-03 FVal=-7.195174392234D+03 Lims=  0.00D+00  1.00D+00
 RMSU=  2.65D-13    CP:  1.00D+00 -3.00D+00 -2.89D+00  3.00D+00  3.00D+00
                    CP: -3.00D+00  3.00D+00  3.00D+00  3.00D+00 -3.00D+00
                    CP: -3.00D+00  1.71D-03
     ILin= 3 X=2.441D-03 Y=-7.195174392232D+03 DE= 1.72D-09 F= -1.50D-11
 RMSU=  2.41D-17    CP:  1.00D+00 -3.00D+00 -2.96D+00  3.00D+00  3.00D+00
                    CP: -3.00D+00  3.00D+00  3.00D+00  3.00D+00 -3.00D+00
                    CP: -3.00D+00  4.92D-04  2.88D-01
 FoF2E skips out because all densities are zero.
     ILin= 4 X=1.221D-03 Y=-7.195174392233D+03 DE= 1.54D-09 F= -1.74D-08
 RMSU=  1.38D-17    CP:  1.00D+00 -2.19D+00 -2.85D+00  3.00D+00  2.52D+00
                    CP:  2.32D+00  2.10D+00  5.83D-01  6.25D-01  1.35D+00
                    CP:  2.69D-01  7.22D-15 -3.81D-05  2.92D-01
 FoF2E skips out because all densities are zero.
     ILin= 5 X=6.103D-04 Y=-7.195174392233D+03 DE= 1.03D-09 F= -2.62D-08
 RMSU=  3.97D-18    CP:  1.00D+00 -9.37D-02 -2.40D+00  4.00D-01  1.34D+00
                    CP:  2.62D-01  1.40D-01  8.94D-01  6.13D-01 -1.13D-01
                    CP:  3.27D-01  2.34D-17 -1.20D-07  2.58D-02  8.30D-02
 FoF2E skips out because all densities are zero.
     ILin= 6 X=3.051D-04 Y=-7.195174392233D+03 DE= 1.49D-09 F= -3.05D-08
 RMSU=  2.34D-18    CP:  1.00D+00  9.53D-01  7.16D-01 -9.28D-02 -2.79D-01
                    CP: -1.17D-01 -9.56D-02 -1.46D-01 -1.49D-01 -1.30D-01
                    CP: -4.48D-02 -3.55D-16  1.88D-06 -1.06D-02 -4.27D-02
                    CP: -3.44D-02
 FoF2E skips out because all densities are zero.
     ILin= 7 X=1.526D-04 Y=-7.195174392233D+03 DE= 1.14D-09 F= -3.27D-08
 RMSU=  2.20D-18    CP:  1.00D+00  1.48D+00  6.69D-01  3.57D-01  5.24D-02
                    CP:  5.39D-02  4.12D-02 -5.74D-02 -8.10D-02 -5.35D-02
                    CP: -3.80D-02 -2.22D-16  1.19D-06 -9.53D-03 -3.33D-02
                    CP: -7.97D-02  1.71D-02
 FoF2E skips out because all densities are zero.
     ILin= 8 X=7.628D-05 Y=-7.195174392233D+03 DE= 8.95D-10 F= -3.38D-08
 RMSU=  2.11D-18    CP:  1.00D+00  1.74D+00  5.83D-01  7.10D-01  2.98D-01
                    CP:  1.96D-01  3.36D-02 -3.77D-02 -1.76D-02  9.72D-02
                    CP: -1.52D-02 -8.13D-18  4.91D-08 -4.48D-03 -1.62D-02
                    CP: -1.37D-01 -3.28D-02 -1.33D-01
 FoF2E skips out because all densities are zero.
     ILin= 9 X=3.814D-05 Y=-7.195174392233D+03 DE= 1.01D-09 F= -3.43D-08
 RMSU=  2.26D-18    CP:  1.00D+00  1.87D+00 -4.92D-01  1.06D+00  1.05D+00
                    CP:  4.22D-01  2.24D-01  3.63D-01  2.75D-01  3.94D-02
                    CP:  1.19D-01 -1.66D-16  8.72D-07 -4.78D-03 -7.80D-03
                    CP:  1.09D-01 -1.55D-01 -1.41D-01 -2.22D-01
 FoF2E skips out because all densities are zero.
     ILin=10 X=1.907D-05 Y=-7.195174392233D+03 DE= 1.16D-09 F= -3.46D-08
 Restarting incremental Fock formation.
     ILin=11 X=9.535D-06 Y=-7.195174392234D+03 DE= 4.87D-10 F= -3.47D-08
 RMSU=  2.22D-12    CP:  1.00D+00
     ILin=12 X=4.768D-06 Y=-7.195174392234D+03 DE= 5.60D-10 F= -3.48D-08
 RMSU=  5.37D-17    CP:  1.00D+00  1.50D+00
 FoF2E skips out because all densities are zero.
     ILin=13 X=2.384D-06 Y=-7.195174392234D+03 DE= 1.09D-10 F= -3.48D-08
 RMSU=  3.29D-18    CP:  1.00D+00  1.75D+00  7.69D-01
 FoF2E skips out because all densities are zero.
     ILin=14 X=1.192D-06 Y=-7.195174392234D+03 DE= 4.00D-10 F= -3.49D-08
 RMSU=  2.66D-18    CP:  1.00D+00  1.88D+00  8.74D-01  5.31D-01
 FoF2E skips out because all densities are zero.
     ILin=15 X=5.960D-07 Y=-7.195174392234D+03 DE= 4.22D-10 F= -3.49D-08
 RMSU=  2.77D-18    CP:  1.00D+00  1.94D+00  1.17D+00  5.16D-01  3.37D-01
 FoF2E skips out because all densities are zero.
     ILin=16 X=2.980D-07 Y=-7.195174392233D+03 DE= 6.04D-10 F= -3.49D-08
 The polynomial fit failed.  Using point  1.
     A contracting polynomial of degree 16 produced  0.0000
 Search did not lower the energy significantly.
     ILin= 1 X=0.000D+00 Y=-7.195174392234D+03 DE= 0.00D+00 F= -3.49D-10
 RMSU=  4.65D-09    CP:  1.00D+00 -3.00D+00 -3.00D+00 -3.00D+00 -3.00D+00
                    CP: -3.00D+00
     ILin= 2 X=1.000D+00 Y=-7.195174392231D+03 DE= 3.06D-09 F=  1.08D-09 OKLS=F
 RMSU=  3.10D-14    CP:  1.00D+00 -3.00D+00 -3.00D+00 -3.00D+00 -3.00D+00
                    CP: -3.00D+00  2.00D+00
     ILin= 3 X=2.000D+00 Y=-7.195174392230D+03 DE= 4.26D-09 F=  2.51D-09
     No minimum found in polynomial.
 RMSU=  4.68D-09    CP:  1.00D+00 -3.00D+00 -3.00D+00 -3.00D+00 -3.00D+00
                    CP: -3.00D+00  3.00D+00  3.00D+00
     ILin= 4 X=4.000D+00 Y=-7.195174392222D+03 DE= 1.20D-08 F=  5.36D-09
     No minimum found in polynomial.
 RMSU=  9.28D-09    CP:  1.00D+00 -3.00D+00 -3.00D+00 -3.00D+00 -3.00D+00
                    CP: -3.00D+00  3.00D+00  3.00D+00  3.00D+00
     ILin= 5 X=8.000D+00 Y=-7.195174392189D+03 DE= 4.53D-08 F=  1.11D-08
     No minimum found in polynomial.
 RMSU=  1.87D-08    CP:  1.00D+00 -3.00D+00 -3.00D+00 -3.00D+00 -3.00D+00
                    CP: -3.00D+00  3.00D+00  3.00D+00  3.00D+00  3.00D+00
     ILin= 6 X=1.600D+01 Y=-7.195174392055D+03 DE= 1.79D-07 F=  2.25D-08
 QCLLim is confused:  Bigger=T Turned=T
 NLin=  6 IMin12=  1  2 I12=  0  2 IX=  1 XLMin= 0.000D+00 XLMax= 0.000D+00
 X = 0.000D+00 1.000D+00 2.000D+00 4.000D+00 8.000D+00 1.600D+01
 DE= 0.000D+00 3.063D-09 4.256D-09 1.203D-08 4.528D-08 1.794D-07
     Reject polynomial IMin12=  1  2 Big=T Turn=T Min= 1.213D+01 FVal=-7.195174392188D+03 Lims=  0.00D+00  1.00D+00
 RMSU=  3.71D-08    CP:  1.00D+00 -3.00D+00 -3.00D+00 -3.00D+00 -3.00D+00
                    CP: -3.00D+00  3.00D+00  3.00D+00  3.00D+00  3.00D+00
                    CP:  3.00D+00
     ILin= 7 X=3.200D+01 Y=-7.195174391512D+03 DE= 7.22D-07 F=  4.54D-08
     No minimum found in polynomial.
 RMSU=  7.49D-08    CP:  1.00D+00 -3.00D+00 -3.00D+00 -3.00D+00 -3.00D+00
                    CP: -3.00D+00  3.00D+00  3.00D+00  3.00D+00  3.00D+00
                    CP:  3.00D+00  3.00D+00
     ILin= 8 X=6.400D+01 Y=-7.195174389329D+03 DE= 2.90D-06 F=  9.11D-08
     No minimum found in polynomial.
 RMSU=  1.48D-07    CP:  1.00D+00 -3.00D+00 -3.00D+00 -3.00D+00 -3.00D+00
                    CP: -3.00D+00  3.00D+00  3.00D+00  3.00D+00  3.00D+00
                    CP:  3.00D+00  3.00D+00  3.00D+00
     ILin= 9 X=1.280D+02 Y=-7.195174380576D+03 DE= 1.17D-05 F=  1.82D-07
     No minimum found in polynomial.
 RMSU=  3.00D-07    CP:  1.00D+00 -3.00D+00 -3.00D+00 -3.00D+00 -3.00D+00
                    CP: -3.00D+00  3.00D+00  3.00D+00  3.00D+00  3.00D+00
                    CP:  3.00D+00  3.00D+00  3.00D+00  3.00D+00
     ILin=10 X=2.560D+02 Y=-7.195174345520D+03 DE= 4.67D-05 F=  3.65D-07
     No minimum found in polynomial.
 RMSU=  5.94D-07    CP:  1.00D+00 -3.00D+00 -3.00D+00 -3.00D+00 -3.00D+00
                    CP: -3.00D+00  3.00D+00  3.00D+00  3.00D+00  3.00D+00
                    CP:  3.00D+00  3.00D+00  3.00D+00  3.00D+00  3.00D+00
     ILin=11 X=5.120D+02 Y=-7.195174205205D+03 DE= 1.87D-04 F=  7.31D-07
     No minimum found in polynomial.
 RMSU=  1.20D-06    CP:  1.00D+00 -3.00D+00 -3.00D+00 -3.00D+00 -3.00D+00
                    CP: -3.00D+00  3.00D+00  3.00D+00  3.00D+00  3.00D+00
                    CP:  3.00D+00  3.00D+00  3.00D+00  3.00D+00  3.00D+00
                    CP:  3.00D+00
     ILin=12 X=1.024D+03 Y=-7.195173643760D+03 DE= 7.48D-04 F=  1.46D-06
     No minimum found in polynomial.
 RMSU=  2.38D-06    CP:  1.00D+00 -3.00D+00 -3.00D+00  3.00D+00 -3.00D+00
                    CP: -3.00D+00  3.00D+00  3.00D+00  3.00D+00  3.00D+00
                    CP:  3.00D+00  3.00D+00  3.00D+00  3.00D+00  3.00D+00
                    CP:  3.00D+00  3.00D+00
     ILin=13 X=2.048D+03 Y=-7.195171397614D+03 DE= 2.99D-03 F=  2.92D-06
     No minimum found in polynomial.
 RMSU=  4.80D-06    CP:  1.00D+00 -3.00D+00  3.00D+00  3.00D+00 -3.00D+00
                    CP: -3.00D+00  3.00D+00  3.00D+00  3.00D+00  3.00D+00
                    CP:  3.00D+00  3.00D+00  3.00D+00  3.00D+00  3.00D+00
                    CP:  3.00D+00  3.00D+00  3.00D+00
     ILin=14 X=4.096D+03 Y=-7.195162412321D+03 DE= 1.20D-02 F=  5.85D-06
     No minimum found in polynomial.
 RMSU=  9.52D-06    CP:  1.00D+00 -3.00D+00  3.00D+00  3.00D+00 -3.00D+00
                    CP: -3.00D+00  3.00D+00  3.00D+00  3.00D+00  3.00D+00
                    CP:  3.00D+00  3.00D+00  3.00D+00  3.00D+00  3.00D+00
                    CP:  3.00D+00  3.00D+00  3.00D+00  3.00D+00
     ILin=15 X=8.192D+03 Y=-7.195126470591D+03 DE= 4.79D-02 F=  1.17D-05
     No minimum found in polynomial.
 Restarting incremental Fock formation.
     ILin=16 X=1.638D+04 Y=-7.194982720624D+03 DE= 1.92D-01 F=  2.34D-05
     No minimum found in polynomial.
 The polynomial fit failed.  Using point  1.
     An  expanding polynomial of degree 16 produced  0.0000
 Search did not lower the energy significantly.
 No lower point found -- run aborted.
 Error termination via Lnk1e in /share/software/user/restricted/gaussian/g16.B01/l508.exe at Mon Jan 29 03:51:11 2024.
 Job cpu time:       7 days 10 hours 42 minutes 52.4 seconds.
 Elapsed time:       0 days  5 hours 48 minutes  5.0 seconds.
 File lengths (MBytes):  RWF=   8509 Int=      0 D2E=      0 Chk=    236 Scr=      1
