 Entering Gaussian System, Link 0=g16
 Input=step_37.gjf
 Output=step_37.log
 Initial command:
 /share/software/user/restricted/gaussian/g16.B01/l1.exe "/home/groups/asalleo/nsiemons/BBL/0020/005/gaussian_files/Gau-15031.inp" -scrdir="/home/groups/asalleo/nsiemons/BBL/0020/005/gaussian_files/"
 Entering Link 1 = /share/software/user/restricted/gaussian/g16.B01/l1.exe PID=     15032.
  
 Copyright (c) 1988-2017, Gaussian, Inc.  All Rights Reserved.
  
 This is part of the Gaussian(R) 16 program.  It is based on
 the Gaussian(R) 09 system (copyright 2009, Gaussian, Inc.),
 the Gaussian(R) 03 system (copyright 2003, Gaussian, Inc.),
 the Gaussian(R) 98 system (copyright 1998, Gaussian, Inc.),
 the Gaussian(R) 94 system (copyright 1995, Gaussian, Inc.),
 the Gaussian 92(TM) system (copyright 1992, Gaussian, Inc.),
 the Gaussian 90(TM) system (copyright 1990, Gaussian, Inc.),
 the Gaussian 88(TM) system (copyright 1988, Gaussian, Inc.),
 the Gaussian 86(TM) system (copyright 1986, Carnegie Mellon
 University), and the Gaussian 82(TM) system (copyright 1983,
 Carnegie Mellon University). Gaussian is a federally registered
 trademark of Gaussian, Inc.
  
 This software contains proprietary and confidential information,
 including trade secrets, belonging to Gaussian, Inc.
  
 This software is provided under written license and may be
 used, copied, transmitted, or stored only in accord with that
 written license.
  
 The following legend is applicable only to US Government
 contracts under FAR:
  
                    RESTRICTED RIGHTS LEGEND
  
 Use, reproduction and disclosure by the US Government is
 subject to restrictions as set forth in subparagraphs (a)
 and (c) of the Commercial Computer Software - Restricted
 Rights clause in FAR 52.227-19.
  
 Gaussian, Inc.
 340 Quinnipiac St., Bldg. 40, Wallingford CT 06492
  
  
 ---------------------------------------------------------------
 Warning -- This program may not be used in any manner that
 competes with the business of Gaussian, Inc. or will provide
 assistance to any competitor of Gaussian, Inc.  The licensee
 of this program is prohibited from giving any competitor of
 Gaussian, Inc. access to this program.  By using this program,
 the user acknowledges that Gaussian, Inc. is engaged in the
 business of creating and licensing software in the field of
 computational chemistry and represents and warrants to the
 licensee that it is not a competitor of Gaussian, Inc. and that
 it will not use this program in any manner prohibited above.
 ---------------------------------------------------------------
  

 Cite this work as:
 Gaussian 16, Revision B.01,
 M. J. Frisch, G. W. Trucks, H. B. Schlegel, G. E. Scuseria, 
 M. A. Robb, J. R. Cheeseman, G. Scalmani, V. Barone, 
 G. A. Petersson, H. Nakatsuji, X. Li, M. Caricato, A. V. Marenich, 
 J. Bloino, B. G. Janesko, R. Gomperts, B. Mennucci, H. P. Hratchian, 
 J. V. Ortiz, A. F. Izmaylov, J. L. Sonnenberg, D. Williams-Young, 
 F. Ding, F. Lipparini, F. Egidi, J. Goings, B. Peng, A. Petrone, 
 T. Henderson, D. Ranasinghe, V. G. Zakrzewski, J. Gao, N. Rega, 
 G. Zheng, W. Liang, M. Hada, M. Ehara, K. Toyota, R. Fukuda, 
 J. Hasegawa, M. Ishida, T. Nakajima, Y. Honda, O. Kitao, H. Nakai, 
 T. Vreven, K. Throssell, J. A. Montgomery, Jr., J. E. Peralta, 
 F. Ogliaro, M. J. Bearpark, J. J. Heyd, E. N. Brothers, K. N. Kudin, 
 V. N. Staroverov, T. A. Keith, R. Kobayashi, J. Normand, 
 K. Raghavachari, A. P. Rendell, J. C. Burant, S. S. Iyengar, 
 J. Tomasi, M. Cossi, J. M. Millam, M. Klene, C. Adamo, R. Cammi, 
 J. W. Ochterski, R. L. Martin, K. Morokuma, O. Farkas, 
 J. B. Foresman, and D. J. Fox, Gaussian, Inc., Wallingford CT, 2016.
 
 ******************************************
 Gaussian 16:  ES64L-G16RevB.01 20-Dec-2017
                20-Jun-2024 
 ******************************************
 %mem=100GB
 %nprocshared=8
 Will use up to    8 processors via shared memory.
 -------------------
 # wb97xd/6-311(d,p)
 -------------------
 1/38=1,172=1/1;
 2/12=2,17=6,18=5,40=1/2;
 3/5=4,6=6,7=101,11=2,25=1,30=1,74=-58/1,2,3;
 4//1;
 5/5=2,38=5/2;
 6/7=2,8=2,9=2,10=2,28=1/1;
 99/5=1,9=1/99;
 ----------------------------
 structures_preEM/step_37.pdb
 ----------------------------
 Symbolic Z-matrix:
 Charge =  0 Multiplicity = 1
 C                     74.298    77.799    73.15 
 H                     73.743    78.729    73.15 
 C                     75.702    77.799    73.15 
 H                     76.257    78.729    73.15 
 C                     76.397    76.613    73.15 
 C                     77.887    76.662    73.15 
 O                     78.524    77.685    73.15 
 N                     78.502    75.411    73.15 
 C                     79.869    75.124    73.15 
 C                     81.       75.93     73.15 
 H                     80.922    77.007    73.15 
 C                     82.222    75.272    73.15 
 C                     82.308    73.873    73.15 
 C                     81.172    73.081    73.15 
 H                     81.225    72.       73.15 
 C                     79.937    73.723    73.15 
 N                     78.663    73.167    73.15 
 C                     77.85     74.174    73.15 
 C                     76.398    74.137    73.15 
 C                     75.701    72.949    73.15 
 H                     76.255    72.018    73.15 
 C                     74.3      72.949    73.15 
 H                     73.746    72.018    73.15 
 C                     73.602    74.137    73.15 
 C                     72.15     74.174    73.15 
 N                     71.337    73.167    73.15 
 C                     70.063    73.722    73.15 
 C                     70.131    75.124    73.15 
 N                     71.498    75.41     73.15 
 C                     72.113    76.662    73.15 
 O                     71.475    77.685    73.15 
 C                     73.603    76.613    73.15 
 C                     74.294    75.374    73.15 
 C                     75.706    75.374    73.15 
 C                     68.828    73.081    73.15 
 H                     68.775    72.       73.15 
 C                     67.692    73.873    73.15 
 H                     66.714    73.405    73.15 
 C                     67.778    75.272    73.15 
 H                     66.866    75.858    73.15 
 C                     69.       75.929    73.15 
 H                     69.078    77.007    73.15 
 H                     83.134    75.858    73.15 
 H                     83.286    73.405    73.15 
 C                     74.298    77.799    76.85 
 H                     73.743    78.729    76.85 
 C                     75.702    77.799    76.85 
 H                     76.257    78.729    76.85 
 C                     76.397    76.613    76.85 
 C                     77.887    76.662    76.85 
 O                     78.524    77.685    76.85 
 N                     78.502    75.411    76.85 
 C                     79.869    75.124    76.85 
 C                     81.       75.93     76.85 
 H                     80.922    77.007    76.85 
 C                     82.222    75.272    76.85 
 C                     82.308    73.873    76.85 
 C                     81.172    73.081    76.85 
 H                     81.225    72.       76.85 
 C                     79.937    73.723    76.85 
 N                     78.663    73.167    76.85 
 C                     77.85     74.174    76.85 
 C                     76.398    74.137    76.85 
 C                     75.701    72.949    76.85 
 H                     76.255    72.018    76.85 
 C                     74.3      72.949    76.85 
 H                     73.746    72.018    76.85 
 C                     73.602    74.137    76.85 
 C                     72.15     74.174    76.85 
 N                     71.337    73.167    76.85 
 C                     70.063    73.722    76.85 
 C                     70.131    75.124    76.85 
 N                     71.498    75.41     76.85 
 C                     72.113    76.662    76.85 
 O                     71.475    77.685    76.85 
 C                     73.603    76.613    76.85 
 C                     74.294    75.374    76.85 
 C                     75.706    75.374    76.85 
 C                     68.828    73.081    76.85 
 H                     68.775    72.       76.85 
 C                     67.692    73.873    76.85 
 H                     66.714    73.405    76.85 
 C                     67.778    75.272    76.85 
 H                     66.866    75.858    76.85 
 C                     69.       75.929    76.85 
 H                     69.078    77.007    76.85 
 H                     83.134    75.858    76.85 
 H                     83.286    73.405    76.85 
 
 Stoichiometry    C52H24N8O4
 Framework group  CS[X(C52H24N8O4)]
 Deg. of freedom   129
 Full point group                 CS      NOp   2
 Largest Abelian subgroup         CS      NOp   2
 Largest concise Abelian subgroup CS      NOp   2
                         Standard orientation:                         
 ---------------------------------------------------------------------
 Center     Atomic      Atomic             Coordinates (Angstroms)
 Number     Number       Type             X           Y           Z
 ---------------------------------------------------------------------
      1          6           0       -2.715986    0.701995    1.850000
      2          1           0       -3.645986    1.256995    1.850000
      3          6           0       -2.715986   -0.702005    1.850000
      4          1           0       -3.645986   -1.257005    1.850000
      5          6           0       -1.529986   -1.397005    1.850000
      6          6           0       -1.578986   -2.887005    1.850000
      7          8           0       -2.601986   -3.524005    1.850000
      8          7           0       -0.327986   -3.502005    1.850000
      9          6           0       -0.040986   -4.869005    1.850000
     10          6           0       -0.846986   -6.000005    1.850000
     11          1           0       -1.923986   -5.922005    1.850000
     12          6           0       -0.188986   -7.222005    1.850000
     13          6           0        1.210014   -7.308005    1.850000
     14          6           0        2.002014   -6.172005    1.850000
     15          1           0        3.083014   -6.225005    1.850000
     16          6           0        1.360014   -4.937005    1.850000
     17          7           0        1.916014   -3.663005    1.850000
     18          6           0        0.909014   -2.850005    1.850000
     19          6           0        0.946014   -1.398005    1.850000
     20          6           0        2.134014   -0.701005    1.850000
     21          1           0        3.065014   -1.255005    1.850000
     22          6           0        2.134014    0.699995    1.850000
     23          1           0        3.065014    1.253995    1.850000
     24          6           0        0.946014    1.397995    1.850000
     25          6           0        0.909014    2.849995    1.850000
     26          7           0        1.916014    3.662995    1.850000
     27          6           0        1.361014    4.936995    1.850000
     28          6           0       -0.040986    4.868995    1.850000
     29          7           0       -0.326986    3.501995    1.850000
     30          6           0       -1.578986    2.886995    1.850000
     31          8           0       -2.601986    3.524995    1.850000
     32          6           0       -1.529986    1.396995    1.850000
     33          6           0       -0.290986    0.705995    1.850000
     34          6           0       -0.290986   -0.706005    1.850000
     35          6           0        2.002014    6.171995    1.850000
     36          1           0        3.083014    6.224995    1.850000
     37          6           0        1.210014    7.307995    1.850000
     38          1           0        1.678014    8.285995    1.850000
     39          6           0       -0.188986    7.221995    1.850000
     40          1           0       -0.774986    8.133995    1.850000
     41          6           0       -0.845986    5.999995    1.850000
     42          1           0       -1.923986    5.921995    1.850000
     43          1           0       -0.774986   -8.134005    1.850000
     44          1           0        1.678014   -8.286005    1.850000
     45          6           0       -2.715986    0.701995   -1.850000
     46          1           0       -3.645986    1.256995   -1.850000
     47          6           0       -2.715986   -0.702005   -1.850000
     48          1           0       -3.645986   -1.257005   -1.850000
     49          6           0       -1.529986   -1.397005   -1.850000
     50          6           0       -1.578986   -2.887005   -1.850000
     51          8           0       -2.601986   -3.524005   -1.850000
     52          7           0       -0.327986   -3.502005   -1.850000
     53          6           0       -0.040986   -4.869005   -1.850000
     54          6           0       -0.846986   -6.000005   -1.850000
     55          1           0       -1.923986   -5.922005   -1.850000
     56          6           0       -0.188986   -7.222005   -1.850000
     57          6           0        1.210014   -7.308005   -1.850000
     58          6           0        2.002014   -6.172005   -1.850000
     59          1           0        3.083014   -6.225005   -1.850000
     60          6           0        1.360014   -4.937005   -1.850000
     61          7           0        1.916014   -3.663005   -1.850000
     62          6           0        0.909014   -2.850005   -1.850000
     63          6           0        0.946014   -1.398005   -1.850000
     64          6           0        2.134014   -0.701005   -1.850000
     65          1           0        3.065014   -1.255005   -1.850000
     66          6           0        2.134014    0.699995   -1.850000
     67          1           0        3.065014    1.253995   -1.850000
     68          6           0        0.946014    1.397995   -1.850000
     69          6           0        0.909014    2.849995   -1.850000
     70          7           0        1.916014    3.662995   -1.850000
     71          6           0        1.361014    4.936995   -1.850000
     72          6           0       -0.040986    4.868995   -1.850000
     73          7           0       -0.326986    3.501995   -1.850000
     74          6           0       -1.578986    2.886995   -1.850000
     75          8           0       -2.601986    3.524995   -1.850000
     76          6           0       -1.529986    1.396995   -1.850000
     77          6           0       -0.290986    0.705995   -1.850000
     78          6           0       -0.290986   -0.706005   -1.850000
     79          6           0        2.002014    6.171995   -1.850000
     80          1           0        3.083014    6.224995   -1.850000
     81          6           0        1.210014    7.307995   -1.850000
     82          1           0        1.678014    8.285995   -1.850000
     83          6           0       -0.188986    7.221995   -1.850000
     84          1           0       -0.774986    8.133995   -1.850000
     85          6           0       -0.845986    5.999995   -1.850000
     86          1           0       -1.923986    5.921995   -1.850000
     87          1           0       -0.774986   -8.134005   -1.850000
     88          1           0        1.678014   -8.286005   -1.850000
 ---------------------------------------------------------------------
 Rotational constants (GHZ):           0.1030730           0.0294692           0.0282526
 Standard basis: 6-311G(d,p) (5D, 7F)
 There are   680 symmetry adapted cartesian basis functions of A'  symmetry.
 There are   680 symmetry adapted cartesian basis functions of A"  symmetry.
 There are   648 symmetry adapted basis functions of A'  symmetry.
 There are   648 symmetry adapted basis functions of A"  symmetry.
  1296 basis functions,  2240 primitive gaussians,  1360 cartesian basis functions
   212 alpha electrons      212 beta electrons
       nuclear repulsion energy      9555.6897198307 Hartrees.
 NAtoms=   88 NActive=   88 NUniq=   44 SFac= 4.00D+00 NAtFMM=   60 NAOKFM=T Big=F
 Integral buffers will be    131072 words long.
 Raffenetti 2 integral format.
 Two-electron integral symmetry is turned on.
 Nuclear repulsion after empirical dispersion term =     9555.5806331118 Hartrees.
 One-electron integrals computed using PRISM.
 NBasis=  1296 RedAO= T EigKep=  3.65D-05  NBF=   648   648
 NBsUse=  1296 1.00D-06 EigRej= -1.00D+00 NBFU=   648   648
 ExpMin= 1.03D-01 ExpMax= 8.59D+03 ExpMxC= 1.30D+03 IAcc=3 IRadAn=         5 AccDes= 0.00D+00
 Harris functional with IExCor= 4639 and IRadAn=       5 diagonalized for initial guess.
 HarFok:  IExCor= 4639 AccDes= 0.00D+00 IRadAn=         5 IDoV= 1 UseB2=F ITyADJ=14
 ICtDFT=  3500011 ScaDFX=  1.000000  1.000000  1.000000  1.000000
 FoFCou: FMM=F IPFlag=           0 FMFlag=      100000 FMFlg1=        2000
         NFxFlg=           0 DoJE=T BraDBF=F KetDBF=T FulRan=T
         wScrn=  0.000000 ICntrl=       500 IOpCl=  0 I1Cent=   200000004 NGrid=           0
         NMat0=    1 NMatS0=      1 NMatT0=    0 NMatD0=    1 NMtDS0=    0 NMtDT0=    0
 Petite list used in FoFCou.
 Initial guess orbital symmetries:
       Occupied  (A") (A') (A") (A') (A") (A") (A') (A') (A") (A')
                 (A") (A') (A") (A') (A") (A') (A") (A') (A") (A')
                 (A") (A") (A') (A') (A") (A') (A") (A') (A") (A")
                 (A') (A') (A") (A') (A") (A') (A") (A') (A") (A')
                 (A") (A') (A") (A') (A") (A") (A') (A') (A") (A')
                 (A") (A') (A") (A') (A") (A') (A") (A') (A") (A')
                 (A") (A') (A") (A') (A') (A') (A") (A") (A') (A')
                 (A") (A") (A') (A") (A') (A") (A') (A") (A') (A")
                 (A') (A") (A') (A") (A') (A") (A') (A') (A") (A")
                 (A') (A") (A') (A") (A') (A") (A') (A") (A') (A")
                 (A') (A") (A') (A") (A') (A") (A') (A") (A') (A')
                 (A") (A") (A') (A") (A') (A") (A') (A") (A') (A")
                 (A') (A") (A') (A') (A") (A") (A') (A") (A') (A')
                 (A") (A") (A') (A') (A") (A") (A') (A') (A") (A')
                 (A") (A') (A") (A') (A") (A') (A') (A") (A') (A")
                 (A") (A") (A') (A') (A") (A') (A") (A') (A") (A')
                 (A') (A") (A") (A") (A') (A') (A') (A') (A") (A")
                 (A") (A') (A") (A") (A') (A') (A") (A') (A') (A")
                 (A') (A") (A") (A") (A') (A") (A') (A') (A') (A")
                 (A") (A") (A') (A') (A') (A") (A") (A") (A') (A')
                 (A") (A') (A") (A') (A") (A') (A') (A") (A") (A')
                 (A") (A")
       Virtual   (A') (A") (A') (A') (A') (A") (A") (A') (A") (A')
                 (A") (A') (A") (A') (A") (A") (A') (A') (A') (A')
                 (A') (A') (A") (A') (A") (A") (A') (A") (A") (A')
                 (A") (A') (A') (A") (A") (A') (A') (A") (A') (A')
                 (A") (A") (A") (A") (A') (A") (A') (A") (A') (A")
                 (A') (A') (A") (A") (A') (A') (A") (A") (A') (A")
                 (A") (A') (A') (A') (A') (A') (A') (A') (A") (A")
                 (A") (A') (A") (A') (A") (A') (A') (A") (A') (A')
                 (A") (A') (A") (A') (A") (A') (A") (A') (A") (A")
                 (A") (A') (A") (A') (A') (A') (A") (A') (A") (A')
                 (A') (A") (A') (A') (A') (A") (A') (A") (A') (A')
                 (A") (A') (A") (A") (A') (A') (A') (A") (A') (A')
                 (A") (A') (A") (A') (A') (A") (A") (A") (A') (A')
                 (A") (A') (A') (A') (A') (A") (A") (A') (A") (A")
                 (A') (A') (A') (A") (A') (A') (A") (A') (A') (A")
                 (A") (A") (A") (A') (A') (A") (A') (A") (A') (A')
                 (A") (A") (A") (A') (A") (A') (A") (A') (A') (A')
                 (A") (A') (A') (A") (A') (A") (A") (A') (A") (A')
                 (A') (A') (A") (A') (A') (A') (A") (A') (A') (A")
                 (A') (A') (A") (A') (A") (A") (A') (A") (A') (A")
                 (A') (A") (A") (A') (A') (A") (A') (A') (A") (A")
                 (A') (A") (A') (A") (A') (A") (A') (A") (A") (A")
                 (A") (A") (A') (A") (A') (A") (A") (A") (A") (A')
                 (A') (A") (A') (A") (A") (A") (A') (A") (A') (A")
                 (A") (A") (A') (A") (A") (A') (A') (A') (A") (A')
                 (A') (A") (A") (A') (A") (A") (A') (A") (A') (A')
                 (A') (A") (A") (A') (A') (A") (A") (A') (A') (A')
                 (A") (A') (A") (A") (A') (A') (A") (A') (A') (A")
                 (A") (A') (A") (A') (A") (A') (A') (A") (A") (A')
                 (A") (A') (A') (A') (A") (A") (A') (A") (A') (A')
                 (A') (A") (A") (A") (A') (A") (A") (A') (A') (A")
                 (A") (A') (A") (A") (A") (A') (A") (A') (A") (A")
                 (A') (A") (A') (A') (A") (A') (A") (A") (A") (A')
                 (A') (A") (A") (A') (A') (A') (A") (A") (A") (A')
                 (A') (A') (A") (A') (A") (A") (A") (A') (A') (A")
                 (A') (A") (A') (A') (A") (A') (A') (A") (A") (A')
                 (A') (A") (A') (A") (A') (A") (A") (A') (A') (A")
                 (A") (A') (A") (A") (A") (A") (A") (A') (A") (A')
                 (A") (A') (A") (A") (A') (A') (A") (A') (A") (A')
                 (A') (A") (A") (A') (A") (A") (A") (A') (A') (A")
                 (A') (A") (A') (A") (A') (A') (A") (A') (A") (A')
                 (A") (A") (A') (A') (A') (A") (A") (A") (A') (A")
                 (A") (A') (A') (A") (A") (A") (A') (A") (A') (A')
                 (A') (A') (A") (A") (A') (A") (A") (A') (A") (A")
                 (A') (A') (A") (A') (A") (A') (A") (A") (A') (A')
                 (A') (A") (A') (A') (A") (A') (A') (A') (A") (A')
                 (A') (A") (A') (A") (A") (A') (A') (A") (A") (A")
                 (A') (A") (A') (A") (A") (A') (A') (A') (A') (A')
                 (A') (A") (A") (A') (A') (A") (A') (A') (A") (A')
                 (A") (A') (A') (A") (A') (A') (A") (A") (A") (A")
                 (A") (A") (A') (A') (A') (A') (A") (A") (A") (A")
                 (A") (A') (A") (A') (A") (A") (A") (A') (A") (A")
                 (A') (A") (A') (A") (A') (A") (A') (A') (A") (A')
                 (A") (A') (A') (A") (A') (A") (A') (A") (A") (A')
                 (A') (A") (A') (A") (A') (A") (A") (A") (A") (A")
                 (A') (A") (A") (A") (A') (A') (A') (A") (A') (A")
                 (A') (A") (A') (A') (A') (A') (A') (A') (A") (A")
                 (A") (A') (A') (A") (A') (A') (A') (A") (A') (A")
                 (A') (A') (A") (A") (A') (A') (A") (A') (A") (A')
                 (A") (A') (A") (A") (A') (A') (A") (A") (A') (A")
                 (A") (A") (A') (A") (A") (A") (A') (A') (A") (A')
                 (A') (A") (A") (A") (A") (A") (A') (A") (A') (A")
                 (A") (A') (A') (A") (A') (A') (A") (A") (A') (A")
                 (A') (A") (A') (A") (A") (A') (A") (A') (A") (A")
                 (A') (A") (A') (A') (A") (A') (A") (A") (A') (A")
                 (A') (A') (A") (A") (A') (A') (A") (A") (A") (A')
                 (A') (A") (A') (A") (A") (A') (A') (A') (A") (A')
                 (A") (A') (A') (A") (A') (A") (A') (A") (A') (A')
                 (A') (A") (A") (A") (A") (A") (A') (A") (A') (A')
                 (A') (A") (A") (A") (A') (A") (A") (A') (A") (A')
                 (A') (A') (A") (A') (A') (A") (A") (A') (A') (A')
                 (A') (A") (A") (A') (A') (A') (A") (A") (A') (A")
                 (A") (A') (A") (A') (A") (A") (A') (A") (A') (A')
                 (A') (A') (A') (A') (A") (A") (A') (A") (A') (A')
                 (A') (A") (A') (A") (A') (A') (A') (A") (A') (A")
                 (A') (A') (A') (A') (A") (A") (A") (A") (A') (A")
                 (A") (A') (A') (A') (A") (A") (A') (A') (A') (A")
                 (A") (A") (A') (A") (A") (A') (A") (A') (A") (A")
                 (A') (A") (A') (A') (A") (A') (A") (A") (A") (A')
                 (A') (A") (A') (A") (A") (A') (A') (A") (A') (A")
                 (A') (A") (A') (A") (A') (A') (A") (A") (A") (A")
                 (A") (A") (A') (A") (A") (A') (A") (A') (A") (A')
                 (A") (A") (A") (A') (A") (A') (A") (A') (A") (A')
                 (A") (A") (A') (A") (A") (A') (A') (A') (A') (A")
                 (A") (A') (A') (A") (A') (A') (A") (A") (A') (A")
                 (A') (A') (A") (A") (A') (A') (A") (A') (A") (A")
                 (A") (A") (A') (A") (A') (A') (A") (A") (A") (A")
                 (A') (A') (A') (A') (A") (A') (A') (A") (A') (A')
                 (A') (A') (A') (A") (A") (A") (A") (A') (A") (A")
                 (A") (A") (A') (A') (A') (A') (A") (A') (A") (A')
                 (A') (A") (A") (A') (A") (A") (A') (A") (A") (A')
                 (A') (A") (A") (A') (A") (A") (A") (A') (A') (A')
                 (A") (A") (A') (A") (A") (A") (A") (A') (A") (A')
                 (A') (A") (A") (A') (A") (A') (A') (A") (A') (A")
                 (A') (A') (A") (A") (A') (A') (A') (A") (A') (A")
                 (A") (A') (A") (A') (A") (A") (A') (A') (A") (A")
                 (A") (A") (A') (A') (A") (A') (A") (A') (A') (A")
                 (A") (A') (A") (A") (A') (A") (A') (A") (A') (A")
                 (A') (A") (A') (A") (A') (A') (A") (A") (A') (A')
                 (A") (A") (A') (A') (A") (A") (A') (A') (A") (A")
                 (A') (A") (A') (A') (A") (A') (A") (A") (A') (A")
                 (A') (A') (A") (A') (A") (A") (A') (A") (A') (A")
                 (A') (A") (A') (A') (A") (A") (A') (A") (A') (A")
                 (A') (A') (A') (A') (A") (A") (A") (A") (A') (A')
                 (A') (A') (A") (A") (A") (A") (A') (A") (A') (A')
                 (A") (A") (A') (A') (A") (A") (A') (A") (A') (A")
                 (A') (A') (A") (A") (A') (A') (A") (A") (A') (A')
                 (A") (A") (A') (A') (A") (A") (A') (A') (A") (A")
                 (A') (A') (A") (A")
 The electronic state of the initial guess is 1-A'.
 Requested convergence on RMS density matrix=1.00D-08 within 128 cycles.
 Requested convergence on MAX density matrix=1.00D-06.
 Requested convergence on             energy=1.00D-06.
 No special actions if energy rises.
 Integral accuracy reduced to 1.0D-05 until final iterations.
 Initial convergence to 1.0D-05 achieved.  Increase integral accuracy.
 SCF Done:  E(RwB97XD) =  -2734.83300595     A.U. after   16 cycles
            NFock= 16  Conv=0.61D-08     -V/T= 2.0036

 **********************************************************************

            Population analysis using the SCF Density.

 **********************************************************************

 Orbital symmetries:
       Occupied  (A") (A') (A") (A') (A") (A') (A") (A') (A") (A')
                 (A") (A') (A") (A') (A") (A') (A") (A') (A") (A')
                 (A") (A') (A") (A') (A") (A') (A") (A') (A") (A')
                 (A") (A') (A") (A') (A") (A') (A") (A') (A") (A')
                 (A") (A') (A") (A') (A") (A') (A") (A') (A") (A')
                 (A") (A') (A") (A') (A") (A') (A") (A') (A") (A')
                 (A") (A') (A") (A') (A') (A') (A") (A") (A') (A')
                 (A") (A") (A') (A") (A') (A") (A') (A") (A') (A")
                 (A') (A") (A') (A") (A') (A") (A') (A") (A') (A")
                 (A') (A") (A') (A') (A") (A") (A') (A") (A') (A")
                 (A') (A") (A') (A") (A') (A") (A') (A") (A') (A")
                 (A') (A") (A') (A") (A') (A") (A') (A") (A') (A")
                 (A') (A') (A") (A") (A') (A") (A') (A") (A') (A')
                 (A') (A") (A") (A') (A") (A') (A") (A") (A') (A")
                 (A') (A") (A') (A") (A') (A") (A') (A") (A') (A")
                 (A') (A') (A") (A') (A") (A') (A") (A') (A') (A')
                 (A") (A") (A') (A") (A') (A") (A") (A") (A') (A')
                 (A") (A') (A') (A") (A') (A') (A") (A") (A') (A")
                 (A') (A") (A") (A") (A') (A') (A") (A') (A") (A')
                 (A") (A") (A') (A") (A') (A") (A') (A") (A') (A")
                 (A') (A') (A") (A") (A') (A') (A') (A") (A") (A")
                 (A') (A")
       Virtual   (A') (A") (A') (A') (A") (A') (A") (A") (A') (A')
                 (A") (A') (A") (A') (A") (A") (A') (A') (A") (A')
                 (A') (A') (A") (A') (A") (A") (A') (A') (A") (A')
                 (A') (A") (A') (A") (A') (A') (A") (A") (A') (A')
                 (A') (A") (A") (A") (A") (A') (A') (A") (A") (A")
                 (A') (A') (A') (A') (A") (A') (A") (A") (A') (A")
                 (A") (A") (A') (A') (A") (A') (A') (A") (A') (A')
                 (A') (A") (A') (A") (A") (A") (A') (A") (A") (A')
                 (A') (A') (A') (A") (A') (A") (A') (A") (A') (A")
                 (A') (A') (A') (A") (A") (A') (A') (A") (A') (A")
                 (A") (A') (A') (A') (A') (A") (A") (A") (A') (A')
                 (A') (A") (A") (A') (A") (A') (A') (A') (A') (A")
                 (A') (A') (A") (A') (A') (A") (A') (A") (A") (A')
                 (A") (A') (A') (A") (A') (A') (A") (A") (A') (A")
                 (A') (A") (A') (A") (A') (A') (A') (A') (A') (A")
                 (A") (A') (A") (A') (A") (A') (A') (A") (A") (A')
                 (A") (A') (A") (A") (A') (A") (A") (A') (A') (A")
                 (A') (A') (A') (A') (A") (A") (A") (A') (A") (A')
                 (A') (A') (A") (A') (A') (A') (A') (A") (A') (A")
                 (A') (A') (A") (A') (A") (A") (A") (A') (A") (A")
                 (A') (A') (A") (A') (A') (A") (A') (A") (A') (A")
                 (A") (A') (A") (A') (A") (A') (A') (A") (A') (A')
                 (A") (A") (A") (A") (A') (A") (A") (A") (A") (A')
                 (A") (A") (A') (A') (A") (A") (A") (A') (A") (A')
                 (A") (A") (A") (A") (A') (A') (A") (A') (A') (A")
                 (A") (A') (A') (A") (A") (A') (A') (A") (A') (A")
                 (A') (A") (A") (A') (A') (A") (A") (A') (A') (A")
                 (A") (A') (A") (A") (A') (A') (A') (A") (A") (A')
                 (A') (A') (A") (A') (A') (A") (A") (A') (A') (A')
                 (A') (A") (A") (A') (A") (A') (A") (A') (A') (A")
                 (A") (A') (A") (A") (A") (A') (A') (A") (A') (A')
                 (A") (A") (A") (A") (A") (A') (A') (A") (A") (A')
                 (A") (A') (A') (A") (A") (A") (A') (A") (A') (A")
                 (A') (A") (A") (A') (A') (A') (A") (A") (A") (A')
                 (A") (A') (A') (A") (A") (A") (A') (A') (A") (A')
                 (A') (A') (A') (A") (A") (A') (A') (A') (A") (A")
                 (A") (A') (A") (A') (A") (A") (A') (A') (A") (A")
                 (A") (A') (A") (A') (A") (A") (A') (A") (A') (A')
                 (A") (A') (A") (A') (A') (A") (A") (A') (A") (A")
                 (A") (A') (A") (A') (A") (A") (A') (A') (A") (A")
                 (A') (A") (A") (A') (A') (A') (A") (A') (A") (A")
                 (A') (A') (A') (A') (A") (A") (A") (A") (A") (A")
                 (A') (A') (A") (A') (A") (A') (A") (A") (A') (A')
                 (A") (A') (A") (A') (A') (A") (A") (A') (A') (A')
                 (A") (A") (A") (A") (A') (A') (A") (A") (A') (A")
                 (A') (A") (A') (A') (A') (A') (A') (A") (A') (A")
                 (A') (A') (A') (A') (A') (A") (A') (A') (A") (A")
                 (A") (A") (A') (A") (A") (A") (A') (A') (A") (A')
                 (A") (A') (A') (A") (A') (A") (A") (A') (A') (A')
                 (A") (A") (A') (A') (A') (A') (A') (A") (A") (A")
                 (A") (A") (A') (A') (A") (A') (A") (A') (A") (A")
                 (A") (A') (A') (A") (A") (A') (A") (A") (A') (A")
                 (A') (A") (A') (A") (A") (A") (A') (A') (A") (A')
                 (A") (A') (A") (A') (A") (A") (A") (A') (A') (A")
                 (A') (A') (A") (A') (A') (A") (A") (A") (A") (A')
                 (A") (A") (A") (A") (A') (A") (A") (A') (A') (A')
                 (A') (A") (A') (A') (A') (A') (A') (A') (A") (A')
                 (A") (A') (A') (A") (A') (A") (A') (A") (A') (A")
                 (A") (A') (A") (A") (A') (A') (A") (A') (A") (A")
                 (A') (A') (A") (A') (A") (A') (A') (A") (A") (A')
                 (A") (A") (A') (A") (A") (A') (A') (A") (A") (A")
                 (A') (A') (A") (A") (A") (A') (A") (A") (A') (A")
                 (A') (A") (A") (A") (A') (A') (A') (A") (A') (A")
                 (A') (A") (A") (A') (A') (A") (A') (A") (A") (A')
                 (A") (A") (A') (A') (A") (A") (A") (A') (A') (A')
                 (A') (A") (A") (A") (A') (A") (A') (A') (A") (A")
                 (A') (A') (A") (A") (A') (A") (A') (A") (A') (A')
                 (A") (A') (A") (A') (A') (A") (A") (A') (A') (A")
                 (A') (A') (A") (A") (A') (A") (A") (A") (A') (A")
                 (A') (A") (A') (A') (A") (A") (A') (A") (A') (A")
                 (A') (A') (A') (A") (A") (A') (A") (A") (A') (A')
                 (A') (A") (A') (A') (A") (A") (A") (A') (A') (A")
                 (A") (A') (A") (A') (A') (A") (A') (A') (A") (A')
                 (A') (A') (A') (A') (A") (A") (A') (A') (A") (A')
                 (A') (A') (A") (A') (A') (A") (A') (A") (A') (A")
                 (A') (A") (A') (A") (A') (A') (A") (A') (A') (A")
                 (A') (A") (A") (A") (A") (A") (A') (A') (A") (A')
                 (A") (A') (A") (A') (A') (A") (A") (A') (A") (A")
                 (A') (A") (A") (A') (A") (A') (A') (A") (A') (A")
                 (A") (A') (A") (A") (A') (A') (A") (A") (A') (A')
                 (A") (A') (A') (A") (A') (A") (A") (A") (A') (A")
                 (A") (A') (A') (A") (A") (A') (A') (A") (A") (A")
                 (A") (A') (A") (A') (A") (A') (A") (A") (A') (A")
                 (A') (A") (A") (A") (A') (A") (A') (A') (A') (A")
                 (A") (A") (A') (A") (A') (A') (A") (A') (A') (A")
                 (A') (A") (A') (A") (A") (A') (A") (A') (A') (A")
                 (A') (A") (A") (A') (A") (A') (A") (A") (A') (A")
                 (A") (A') (A") (A') (A') (A') (A") (A') (A') (A')
                 (A') (A") (A") (A") (A') (A") (A') (A') (A") (A")
                 (A") (A") (A') (A') (A') (A') (A') (A") (A") (A")
                 (A') (A') (A") (A') (A') (A') (A") (A") (A") (A")
                 (A') (A') (A") (A") (A") (A") (A") (A') (A') (A')
                 (A') (A") (A") (A") (A") (A") (A") (A') (A") (A')
                 (A') (A") (A") (A') (A") (A') (A') (A") (A') (A")
                 (A') (A') (A') (A") (A') (A') (A') (A") (A") (A")
                 (A") (A") (A') (A") (A') (A") (A") (A") (A') (A')
                 (A") (A") (A') (A') (A') (A") (A") (A') (A") (A')
                 (A") (A") (A') (A') (A") (A') (A") (A") (A') (A")
                 (A') (A") (A') (A") (A') (A') (A") (A") (A') (A')
                 (A') (A") (A") (A') (A") (A") (A') (A') (A') (A")
                 (A") (A") (A') (A") (A') (A') (A") (A") (A') (A")
                 (A') (A") (A') (A') (A") (A") (A') (A") (A') (A")
                 (A') (A") (A') (A') (A") (A") (A') (A") (A') (A')
                 (A") (A") (A') (A") (A') (A') (A") (A') (A') (A")
                 (A') (A') (A") (A") (A") (A") (A') (A') (A") (A")
                 (A') (A") (A') (A") (A') (A') (A") (A') (A") (A")
                 (A') (A') (A") (A") (A') (A') (A") (A") (A') (A')
                 (A") (A") (A') (A') (A") (A") (A') (A') (A") (A")
                 (A') (A') (A") (A")
 The electronic state is 1-A'.
 Alpha  occ. eigenvalues --  -19.25631 -19.25630 -19.25619 -19.25618 -14.51842
 Alpha  occ. eigenvalues --  -14.51842 -14.51840 -14.51840 -14.43958 -14.43957
 Alpha  occ. eigenvalues --  -14.43941 -14.43941 -10.43477 -10.43477 -10.43461
 Alpha  occ. eigenvalues --  -10.43461 -10.38331 -10.38331 -10.38321 -10.38320
 Alpha  occ. eigenvalues --  -10.34370 -10.34369 -10.34326 -10.34325 -10.34267
 Alpha  occ. eigenvalues --  -10.34266 -10.34262 -10.34262 -10.33945 -10.33945
 Alpha  occ. eigenvalues --  -10.33941 -10.33940 -10.33820 -10.33820 -10.33811
 Alpha  occ. eigenvalues --  -10.33811 -10.33268 -10.33267 -10.33216 -10.33215
 Alpha  occ. eigenvalues --  -10.32569 -10.32568 -10.32515 -10.32515 -10.32364
 Alpha  occ. eigenvalues --  -10.32364 -10.32357 -10.32357 -10.29829 -10.29828
 Alpha  occ. eigenvalues --  -10.29819 -10.29818 -10.29522 -10.29521 -10.29508
 Alpha  occ. eigenvalues --  -10.29507 -10.29490 -10.29490 -10.29478 -10.29478
 Alpha  occ. eigenvalues --  -10.29315 -10.29315 -10.29307 -10.29307  -1.19840
 Alpha  occ. eigenvalues --   -1.19810  -1.19750  -1.19721  -1.14535  -1.14510
 Alpha  occ. eigenvalues --   -1.14424  -1.14401  -1.03922  -1.03696  -1.02276
 Alpha  occ. eigenvalues --   -1.02168  -1.01992  -1.01868  -0.97819  -0.97589
 Alpha  occ. eigenvalues --   -0.97568  -0.97347  -0.96228  -0.96004  -0.94325
 Alpha  occ. eigenvalues --   -0.94109  -0.89506  -0.89309  -0.89097  -0.88882
 Alpha  occ. eigenvalues --   -0.87426  -0.87239  -0.86039  -0.85839  -0.85831
 Alpha  occ. eigenvalues --   -0.85631  -0.84110  -0.83925  -0.81597  -0.81440
 Alpha  occ. eigenvalues --   -0.78642  -0.78467  -0.78450  -0.78328  -0.76221
 Alpha  occ. eigenvalues --   -0.76056  -0.75211  -0.75082  -0.73234  -0.73086
 Alpha  occ. eigenvalues --   -0.72247  -0.72087  -0.70916  -0.70765  -0.70651
 Alpha  occ. eigenvalues --   -0.70505  -0.67922  -0.67760  -0.66967  -0.66816
 Alpha  occ. eigenvalues --   -0.64804  -0.64657  -0.64657  -0.64507  -0.62688
 Alpha  occ. eigenvalues --   -0.62558  -0.62040  -0.61916  -0.60721  -0.60562
 Alpha  occ. eigenvalues --   -0.60463  -0.60418  -0.60339  -0.60055  -0.58760
 Alpha  occ. eigenvalues --   -0.58384  -0.58321  -0.58181  -0.57237  -0.57138
 Alpha  occ. eigenvalues --   -0.56700  -0.56585  -0.56165  -0.56067  -0.55211
 Alpha  occ. eigenvalues --   -0.55105  -0.54841  -0.54725  -0.54398  -0.54256
 Alpha  occ. eigenvalues --   -0.54059  -0.53831  -0.53711  -0.53316  -0.53143
 Alpha  occ. eigenvalues --   -0.53035  -0.52902  -0.52438  -0.52278  -0.52189
 Alpha  occ. eigenvalues --   -0.52073  -0.51786  -0.51620  -0.51508  -0.51148
 Alpha  occ. eigenvalues --   -0.51043  -0.50665  -0.50635  -0.47377  -0.47319
 Alpha  occ. eigenvalues --   -0.47296  -0.47156  -0.46431  -0.46308  -0.45993
 Alpha  occ. eigenvalues --   -0.45974  -0.45853  -0.45844  -0.45508  -0.45370
 Alpha  occ. eigenvalues --   -0.45348  -0.45233  -0.44987  -0.44801  -0.44524
 Alpha  occ. eigenvalues --   -0.42693  -0.42404  -0.41327  -0.40845  -0.40711
 Alpha  occ. eigenvalues --   -0.39889  -0.39080  -0.39051  -0.38901  -0.38811
 Alpha  occ. eigenvalues --   -0.38671  -0.37984  -0.37812  -0.37749  -0.37578
 Alpha  occ. eigenvalues --   -0.37363  -0.36167  -0.35172  -0.34209  -0.33544
 Alpha  occ. eigenvalues --   -0.33188  -0.33015  -0.31549  -0.31215  -0.31023
 Alpha  occ. eigenvalues --   -0.30010  -0.28242
 Alpha virt. eigenvalues --   -0.08241  -0.06453  -0.01265   0.00077   0.00705
 Alpha virt. eigenvalues --    0.00989   0.02216   0.02652   0.03408   0.05215
 Alpha virt. eigenvalues --    0.05505   0.05759   0.07099   0.07593   0.07927
 Alpha virt. eigenvalues --    0.09620   0.09670   0.11187   0.11414   0.11495
 Alpha virt. eigenvalues --    0.11517   0.11694   0.12743   0.12743   0.14574
 Alpha virt. eigenvalues --    0.14642   0.14732   0.14869   0.15013   0.15307
 Alpha virt. eigenvalues --    0.16182   0.16236   0.17289   0.17301   0.17618
 Alpha virt. eigenvalues --    0.18000   0.18249   0.18374   0.18722   0.19425
 Alpha virt. eigenvalues --    0.19510   0.20252   0.20624   0.20957   0.21093
 Alpha virt. eigenvalues --    0.21153   0.21233   0.21305   0.22410   0.22911
 Alpha virt. eigenvalues --    0.23493   0.23707   0.23874   0.24429   0.24909
 Alpha virt. eigenvalues --    0.25137   0.25197   0.25574   0.25609   0.25659
 Alpha virt. eigenvalues --    0.25705   0.25834   0.26179   0.26629   0.26826
 Alpha virt. eigenvalues --    0.27574   0.27950   0.28294   0.28450   0.28518
 Alpha virt. eigenvalues --    0.29031   0.29170   0.29171   0.29880   0.29988
 Alpha virt. eigenvalues --    0.30048   0.30169   0.30955   0.31596   0.31819
 Alpha virt. eigenvalues --    0.32080   0.32237   0.32831   0.33024   0.33095
 Alpha virt. eigenvalues --    0.33304   0.33336   0.33479   0.33720   0.33751
 Alpha virt. eigenvalues --    0.33967   0.35195   0.35674   0.35776   0.35832
 Alpha virt. eigenvalues --    0.36275   0.36314   0.36667   0.37028   0.37232
 Alpha virt. eigenvalues --    0.37577   0.37624   0.37640   0.38241   0.38637
 Alpha virt. eigenvalues --    0.39126   0.39250   0.39291   0.39440   0.39612
 Alpha virt. eigenvalues --    0.40288   0.40497   0.40539   0.40984   0.41489
 Alpha virt. eigenvalues --    0.41916   0.42416   0.42475   0.42721   0.43114
 Alpha virt. eigenvalues --    0.43203   0.43508   0.43525   0.44082   0.44496
 Alpha virt. eigenvalues --    0.44573   0.44816   0.44846   0.45517   0.45526
 Alpha virt. eigenvalues --    0.45607   0.46105   0.46538   0.46948   0.47112
 Alpha virt. eigenvalues --    0.47142   0.47251   0.47396   0.47573   0.47613
 Alpha virt. eigenvalues --    0.47736   0.48039   0.48093   0.48331   0.48543
 Alpha virt. eigenvalues --    0.48796   0.49151   0.49551   0.49729   0.49984
 Alpha virt. eigenvalues --    0.50053   0.50110   0.50257   0.50405   0.50678
 Alpha virt. eigenvalues --    0.51131   0.51263   0.51351   0.51483   0.51699
 Alpha virt. eigenvalues --    0.51964   0.52231   0.52273   0.52504   0.53228
 Alpha virt. eigenvalues --    0.53357   0.53871   0.54123   0.54222   0.54575
 Alpha virt. eigenvalues --    0.54603   0.54620   0.56344   0.56479   0.56764
 Alpha virt. eigenvalues --    0.57068   0.57378   0.57895   0.58335   0.58514
 Alpha virt. eigenvalues --    0.58643   0.58829   0.59550   0.59761   0.60199
 Alpha virt. eigenvalues --    0.60224   0.60695   0.60734   0.60813   0.61622
 Alpha virt. eigenvalues --    0.62191   0.62256   0.62455   0.62478   0.62801
 Alpha virt. eigenvalues --    0.63394   0.63672   0.64093   0.64278   0.64403
 Alpha virt. eigenvalues --    0.64629   0.64975   0.65154   0.65391   0.65833
 Alpha virt. eigenvalues --    0.66383   0.66394   0.66783   0.66886   0.66964
 Alpha virt. eigenvalues --    0.67089   0.67406   0.67437   0.67577   0.68222
 Alpha virt. eigenvalues --    0.68360   0.68438   0.68753   0.68871   0.68948
 Alpha virt. eigenvalues --    0.69027   0.69068   0.69114   0.69334   0.69386
 Alpha virt. eigenvalues --    0.69535   0.69637   0.70069   0.70251   0.70483
 Alpha virt. eigenvalues --    0.70757   0.70802   0.70870   0.70950   0.71350
 Alpha virt. eigenvalues --    0.71449   0.71811   0.71829   0.71945   0.72075
 Alpha virt. eigenvalues --    0.72222   0.72514   0.73227   0.73510   0.73543
 Alpha virt. eigenvalues --    0.73976   0.74037   0.74208   0.75216   0.75462
 Alpha virt. eigenvalues --    0.75598   0.75618   0.75988   0.76267   0.76440
 Alpha virt. eigenvalues --    0.76622   0.77095   0.77176   0.77273   0.77498
 Alpha virt. eigenvalues --    0.78529   0.78597   0.79161   0.79400   0.79709
 Alpha virt. eigenvalues --    0.80147   0.80621   0.80874   0.80990   0.81620
 Alpha virt. eigenvalues --    0.81720   0.81858   0.81911   0.82500   0.82822
 Alpha virt. eigenvalues --    0.83789   0.83823   0.84091   0.84234   0.84791
 Alpha virt. eigenvalues --    0.85300   0.85306   0.85564   0.85981   0.86000
 Alpha virt. eigenvalues --    0.86367   0.86564   0.86877   0.86955   0.87340
 Alpha virt. eigenvalues --    0.88325   0.88334   0.88361   0.89044   0.89418
 Alpha virt. eigenvalues --    0.89550   0.89727   0.89785   0.89955   0.90074
 Alpha virt. eigenvalues --    0.91206   0.91289   0.91721   0.92039   0.92536
 Alpha virt. eigenvalues --    0.92604   0.92775   0.93460   0.93486   0.94499
 Alpha virt. eigenvalues --    0.94502   0.95411   0.95487   0.95736   0.96447
 Alpha virt. eigenvalues --    0.96456   0.97051   0.97240   0.97398   0.97592
 Alpha virt. eigenvalues --    0.97684   0.98113   0.98283   0.98422   0.98884
 Alpha virt. eigenvalues --    0.98906   0.99334   0.99962   1.00320   1.00404
 Alpha virt. eigenvalues --    1.00743   1.01065   1.01932   1.02398   1.02687
 Alpha virt. eigenvalues --    1.03018   1.03140   1.03999   1.04128   1.04145
 Alpha virt. eigenvalues --    1.04563   1.04611   1.04952   1.04964   1.05398
 Alpha virt. eigenvalues --    1.06524   1.06543   1.06641   1.06874   1.07121
 Alpha virt. eigenvalues --    1.07285   1.07745   1.07818   1.08538   1.08607
 Alpha virt. eigenvalues --    1.08648   1.09019   1.09555   1.09557   1.09593
 Alpha virt. eigenvalues --    1.10062   1.10818   1.10873   1.11078   1.11483
 Alpha virt. eigenvalues --    1.12010   1.12047   1.13021   1.13337   1.13732
 Alpha virt. eigenvalues --    1.13952   1.14263   1.14375   1.15070   1.15282
 Alpha virt. eigenvalues --    1.15284   1.15394   1.15500   1.15569   1.15772
 Alpha virt. eigenvalues --    1.16082   1.16826   1.16980   1.17209   1.17493
 Alpha virt. eigenvalues --    1.17820   1.17939   1.18135   1.18784   1.18859
 Alpha virt. eigenvalues --    1.19007   1.19625   1.19744   1.19882   1.19916
 Alpha virt. eigenvalues --    1.20264   1.20666   1.21108   1.21337   1.21866
 Alpha virt. eigenvalues --    1.22078   1.23031   1.23091   1.23269   1.24059
 Alpha virt. eigenvalues --    1.24261   1.24616   1.24623   1.25200   1.25619
 Alpha virt. eigenvalues --    1.25714   1.26025   1.26578   1.26805   1.26986
 Alpha virt. eigenvalues --    1.27075   1.27663   1.27991   1.28812   1.28870
 Alpha virt. eigenvalues --    1.29311   1.29513   1.30183   1.30885   1.32667
 Alpha virt. eigenvalues --    1.32823   1.33115   1.33618   1.34022   1.34874
 Alpha virt. eigenvalues --    1.35089   1.35252   1.35949   1.36619   1.37204
 Alpha virt. eigenvalues --    1.37458   1.37784   1.39126   1.39951   1.40559
 Alpha virt. eigenvalues --    1.41040   1.41253   1.41809   1.44231   1.44408
 Alpha virt. eigenvalues --    1.44638   1.45596   1.46555   1.47208   1.47225
 Alpha virt. eigenvalues --    1.47776   1.47849   1.47912   1.49212   1.49901
 Alpha virt. eigenvalues --    1.50400   1.50851   1.51141   1.51414   1.51455
 Alpha virt. eigenvalues --    1.51729   1.52510   1.52814   1.52998   1.53003
 Alpha virt. eigenvalues --    1.53106   1.53921   1.54227   1.55074   1.55284
 Alpha virt. eigenvalues --    1.55845   1.56166   1.56512   1.56632   1.56671
 Alpha virt. eigenvalues --    1.57305   1.57535   1.57750   1.58330   1.58725
 Alpha virt. eigenvalues --    1.58741   1.60097   1.60191   1.60352   1.60733
 Alpha virt. eigenvalues --    1.61000   1.61240   1.62136   1.62273   1.62482
 Alpha virt. eigenvalues --    1.62830   1.63202   1.63361   1.63448   1.63527
 Alpha virt. eigenvalues --    1.64321   1.64749   1.65271   1.66102   1.66939
 Alpha virt. eigenvalues --    1.67080   1.67426   1.67947   1.68200   1.68488
 Alpha virt. eigenvalues --    1.68631   1.68923   1.69240   1.69381   1.69584
 Alpha virt. eigenvalues --    1.70652   1.71006   1.71564   1.71587   1.71987
 Alpha virt. eigenvalues --    1.72102   1.72466   1.72991   1.73013   1.73199
 Alpha virt. eigenvalues --    1.73450   1.73997   1.74042   1.74471   1.74540
 Alpha virt. eigenvalues --    1.75253   1.75750   1.76736   1.77174   1.77396
 Alpha virt. eigenvalues --    1.77969   1.78298   1.78543   1.78896   1.78971
 Alpha virt. eigenvalues --    1.79600   1.79634   1.80367   1.80769   1.80874
 Alpha virt. eigenvalues --    1.81425   1.81458   1.81556   1.81684   1.81742
 Alpha virt. eigenvalues --    1.82730   1.83209   1.83628   1.84045   1.84675
 Alpha virt. eigenvalues --    1.84767   1.85262   1.85461   1.85631   1.86328
 Alpha virt. eigenvalues --    1.86906   1.87099   1.87282   1.87880   1.87972
 Alpha virt. eigenvalues --    1.88320   1.89009   1.89397   1.89861   1.90063
 Alpha virt. eigenvalues --    1.90363   1.90812   1.91247   1.91885   1.92003
 Alpha virt. eigenvalues --    1.92195   1.92535   1.92778   1.92863   1.93119
 Alpha virt. eigenvalues --    1.93125   1.93446   1.94413   1.94572   1.94734
 Alpha virt. eigenvalues --    1.94821   1.95116   1.95169   1.96477   1.96646
 Alpha virt. eigenvalues --    1.97196   1.97216   1.97257   1.97335   1.97444
 Alpha virt. eigenvalues --    1.97479   1.97734   1.97865   1.98107   1.98241
 Alpha virt. eigenvalues --    1.98245   1.99010   1.99557   1.99669   2.00005
 Alpha virt. eigenvalues --    2.00573   2.00919   2.01177   2.01463   2.02200
 Alpha virt. eigenvalues --    2.02371   2.02405   2.02587   2.02891   2.02935
 Alpha virt. eigenvalues --    2.03226   2.03751   2.04473   2.05824   2.05846
 Alpha virt. eigenvalues --    2.06155   2.06359   2.06854   2.07051   2.07164
 Alpha virt. eigenvalues --    2.07276   2.08271   2.08498   2.08671   2.08673
 Alpha virt. eigenvalues --    2.08944   2.09325   2.10265   2.10419   2.11164
 Alpha virt. eigenvalues --    2.11913   2.12406   2.12834   2.12852   2.14410
 Alpha virt. eigenvalues --    2.14548   2.14827   2.14851   2.16719   2.17035
 Alpha virt. eigenvalues --    2.17046   2.17706   2.18365   2.19426   2.20896
 Alpha virt. eigenvalues --    2.21030   2.21161   2.21186   2.22626   2.22835
 Alpha virt. eigenvalues --    2.23027   2.23141   2.24297   2.24495   2.24576
 Alpha virt. eigenvalues --    2.25801   2.26377   2.26830   2.27524   2.27666
 Alpha virt. eigenvalues --    2.28285   2.28394   2.28439   2.31013   2.31380
 Alpha virt. eigenvalues --    2.31763   2.33076   2.33319   2.34573   2.35044
 Alpha virt. eigenvalues --    2.35282   2.35559   2.35862   2.36303   2.37048
 Alpha virt. eigenvalues --    2.37279   2.37648   2.37892   2.38048   2.39505
 Alpha virt. eigenvalues --    2.39817   2.39877   2.41119   2.41260   2.42721
 Alpha virt. eigenvalues --    2.43017   2.43104   2.43352   2.43542   2.43794
 Alpha virt. eigenvalues --    2.45302   2.45583   2.46500   2.47593   2.48377
 Alpha virt. eigenvalues --    2.49607   2.50112   2.51121   2.51255   2.51611
 Alpha virt. eigenvalues --    2.52997   2.54212   2.54561   2.54612   2.54640
 Alpha virt. eigenvalues --    2.54707   2.56656   2.57380   2.57992   2.58145
 Alpha virt. eigenvalues --    2.58496   2.58528   2.59015   2.59427   2.59606
 Alpha virt. eigenvalues --    2.60032   2.61583   2.61656   2.61807   2.62755
 Alpha virt. eigenvalues --    2.62856   2.62935   2.63992   2.64179   2.64425
 Alpha virt. eigenvalues --    2.65356   2.65498   2.65747   2.66060   2.66222
 Alpha virt. eigenvalues --    2.66717   2.67040   2.67210   2.67488   2.67626
 Alpha virt. eigenvalues --    2.67894   2.68114   2.68511   2.69096   2.69211
 Alpha virt. eigenvalues --    2.69348   2.69428   2.70031   2.70552   2.70649
 Alpha virt. eigenvalues --    2.70887   2.71002   2.71075   2.71953   2.72235
 Alpha virt. eigenvalues --    2.72245   2.73060   2.73074   2.73117   2.73259
 Alpha virt. eigenvalues --    2.73608   2.75902   2.76675   2.76796   2.76885
 Alpha virt. eigenvalues --    2.78170   2.78227   2.78244   2.78463   2.78758
 Alpha virt. eigenvalues --    2.79209   2.79549   2.80510   2.81205   2.81420
 Alpha virt. eigenvalues --    2.81908   2.81923   2.82123   2.82412   2.82988
 Alpha virt. eigenvalues --    2.83008   2.83333   2.83503   2.84400   2.84471
 Alpha virt. eigenvalues --    2.85110   2.86136   2.86758   2.86764   2.87650
 Alpha virt. eigenvalues --    2.87712   2.87993   2.88534   2.88587   2.88873
 Alpha virt. eigenvalues --    2.89652   2.90459   2.90619   2.90713   2.91002
 Alpha virt. eigenvalues --    2.91151   2.91191   2.91664   2.92128   2.92133
 Alpha virt. eigenvalues --    2.92661   2.92953   2.93459   2.93829   2.93854
 Alpha virt. eigenvalues --    2.94091   2.94710   2.94831   2.95188   2.96059
 Alpha virt. eigenvalues --    2.96340   2.97094   2.97942   2.98095   2.98204
 Alpha virt. eigenvalues --    2.98442   2.99041   2.99695   2.99881   3.00161
 Alpha virt. eigenvalues --    3.00375   3.01219   3.01941   3.02724   3.02734
 Alpha virt. eigenvalues --    3.02984   3.03503   3.03675   3.03939   3.04388
 Alpha virt. eigenvalues --    3.05951   3.06532   3.06937   3.07591   3.08535
 Alpha virt. eigenvalues --    3.08716   3.09870   3.10872   3.11470   3.11701
 Alpha virt. eigenvalues --    3.12301   3.13952   3.14538   3.14992   3.15402
 Alpha virt. eigenvalues --    3.15518   3.15738   3.15869   3.17631   3.18092
 Alpha virt. eigenvalues --    3.18852   3.19210   3.19640   3.20016   3.22351
 Alpha virt. eigenvalues --    3.24505   3.24934   3.25053   3.25462   3.26093
 Alpha virt. eigenvalues --    3.27090   3.27543   3.27709   3.28466   3.29016
 Alpha virt. eigenvalues --    3.31043   3.31337   3.32725   3.33165   3.33540
 Alpha virt. eigenvalues --    3.34107   3.35408   3.36656   3.38344   3.38399
 Alpha virt. eigenvalues --    3.39703   3.39760   3.40096   3.40611   3.41022
 Alpha virt. eigenvalues --    3.41957   3.42252   3.42942   3.43478   3.43738
 Alpha virt. eigenvalues --    3.43944   3.44428   3.46295   3.48380   3.48530
 Alpha virt. eigenvalues --    3.49211   3.50865   3.51049   3.51796   3.52522
 Alpha virt. eigenvalues --    3.52713   3.53319   3.53746   3.54215   3.54995
 Alpha virt. eigenvalues --    3.55264   3.55978   3.57028   3.57694   3.57886
 Alpha virt. eigenvalues --    3.60128   3.60398   3.60521   3.62071   3.62102
 Alpha virt. eigenvalues --    3.62827   3.63114   3.63953   3.64506   3.65479
 Alpha virt. eigenvalues --    3.65847   3.66245   3.67981   3.68273   3.69086
 Alpha virt. eigenvalues --    3.69130   3.69560   3.69958   3.71712   3.72947
 Alpha virt. eigenvalues --    3.74702   3.74973   3.75079   3.76692   3.76833
 Alpha virt. eigenvalues --    3.78631   3.81051   3.81542   3.84009   3.84554
 Alpha virt. eigenvalues --    3.86010   3.88775   3.89983   3.90427   3.91085
 Alpha virt. eigenvalues --    3.91281   3.92493   3.93919   3.94179   3.94597
 Alpha virt. eigenvalues --    3.94768   3.95091   3.95205   3.98196   3.99442
 Alpha virt. eigenvalues --    4.01637   4.02365   4.03298   4.03537   4.04294
 Alpha virt. eigenvalues --    4.05533   4.05786   4.06954   4.11174   4.11198
 Alpha virt. eigenvalues --    4.13900   4.13942   4.14177   4.14313   4.16491
 Alpha virt. eigenvalues --    4.16975   4.17870   4.19570   4.19745   4.21596
 Alpha virt. eigenvalues --    4.21858   4.24074   4.24291   4.28146   4.28323
 Alpha virt. eigenvalues --    4.30278   4.30676   4.31502   4.40720   4.43500
 Alpha virt. eigenvalues --    4.44106   4.48118   4.51443   4.55258   4.62553
 Alpha virt. eigenvalues --    4.65466   4.66155   4.69757   4.91109   4.92451
 Alpha virt. eigenvalues --    4.92966   4.93225   4.93493   4.93571   4.93732
 Alpha virt. eigenvalues --    4.94675   4.98465   4.99387   5.02609   5.03341
 Alpha virt. eigenvalues --    5.04452   5.04712   5.11385   5.15583   5.16363
 Alpha virt. eigenvalues --    5.18229   5.19278   5.21240   5.27729   5.30243
 Alpha virt. eigenvalues --    5.31640   5.34708   5.35759   5.36845   5.40944
 Alpha virt. eigenvalues --    5.41740   5.79675   5.82978   5.83100   5.86403
 Alpha virt. eigenvalues --   23.49692  23.55607  23.66360  23.66731  23.69931
 Alpha virt. eigenvalues --   23.70624  23.81633  23.86641  23.90754  23.92740
 Alpha virt. eigenvalues --   23.92938  23.93802  23.94953  23.98039  24.00525
 Alpha virt. eigenvalues --   24.00573  24.02154  24.02471  24.03024  24.03305
 Alpha virt. eigenvalues --   24.03755  24.03955  24.04970  24.05731  24.05852
 Alpha virt. eigenvalues --   24.05937  24.09284  24.10245  24.10997  24.11985
 Alpha virt. eigenvalues --   24.13038  24.14244  24.17970  24.18644  24.19006
 Alpha virt. eigenvalues --   24.19121  24.19477  24.19571  24.19577  24.20776
 Alpha virt. eigenvalues --   24.24102  24.24226  24.24868  24.24991  24.27101
 Alpha virt. eigenvalues --   24.27709  24.28610  24.29207  24.31733  24.31807
 Alpha virt. eigenvalues --   24.33372  24.33443  35.62508  35.64237  35.67260
 Alpha virt. eigenvalues --   35.69272  35.84527  35.85260  35.87991  35.89246
 Alpha virt. eigenvalues --   50.11243  50.11902  50.15817  50.16685
          Condensed to atoms (all electrons):
 Mulliken charges:
               1
     1  C   -0.023376
     2  H    0.135282
     3  C   -0.023472
     4  H    0.135275
     5  C   -0.290367
     6  C    0.563393
     7  O   -0.318552
     8  N   -0.601502
     9  C    0.230725
    10  C   -0.048317
    11  H    0.140092
    12  C   -0.113347
    13  C   -0.103831
    14  C   -0.079432
    15  H    0.113401
    16  C   -0.021719
    17  N   -0.344566
    18  C    0.532843
    19  C   -0.258728
    20  C   -0.007081
    21  H    0.128622
    22  C   -0.007431
    23  H    0.128622
    24  C   -0.258762
    25  C    0.533188
    26  N   -0.344632
    27  C   -0.021383
    28  C    0.230317
    29  N   -0.601535
    30  C    0.563121
    31  O   -0.318600
    32  C   -0.290100
    33  C    0.144504
    34  C    0.144610
    35  C   -0.079448
    36  H    0.113316
    37  C   -0.103889
    38  H    0.109671
    39  C   -0.113118
    40  H    0.112413
    41  C   -0.048428
    42  H    0.140070
    43  H    0.112450
    44  H    0.109699
    45  C   -0.023376
    46  H    0.135282
    47  C   -0.023472
    48  H    0.135275
    49  C   -0.290367
    50  C    0.563393
    51  O   -0.318552
    52  N   -0.601502
    53  C    0.230725
    54  C   -0.048317
    55  H    0.140092
    56  C   -0.113347
    57  C   -0.103831
    58  C   -0.079432
    59  H    0.113401
    60  C   -0.021719
    61  N   -0.344566
    62  C    0.532843
    63  C   -0.258728
    64  C   -0.007081
    65  H    0.128622
    66  C   -0.007431
    67  H    0.128622
    68  C   -0.258762
    69  C    0.533188
    70  N   -0.344632
    71  C   -0.021383
    72  C    0.230317
    73  N   -0.601535
    74  C    0.563121
    75  O   -0.318600
    76  C   -0.290100
    77  C    0.144504
    78  C    0.144610
    79  C   -0.079448
    80  H    0.113316
    81  C   -0.103889
    82  H    0.109671
    83  C   -0.113118
    84  H    0.112413
    85  C   -0.048428
    86  H    0.140070
    87  H    0.112450
    88  H    0.109699
 Sum of Mulliken charges =  -0.00000
 Mulliken charges with hydrogens summed into heavy atoms:
               1
     1  C    0.111906
     3  C    0.111803
     5  C   -0.290367
     6  C    0.563393
     7  O   -0.318552
     8  N   -0.601502
     9  C    0.230725
    10  C    0.091775
    12  C   -0.000898
    13  C    0.005869
    14  C    0.033969
    16  C   -0.021719
    17  N   -0.344566
    18  C    0.532843
    19  C   -0.258728
    20  C    0.121541
    22  C    0.121190
    24  C   -0.258762
    25  C    0.533188
    26  N   -0.344632
    27  C   -0.021383
    28  C    0.230317
    29  N   -0.601535
    30  C    0.563121
    31  O   -0.318600
    32  C   -0.290100
    33  C    0.144504
    34  C    0.144610
    35  C    0.033868
    37  C    0.005782
    39  C   -0.000705
    41  C    0.091643
    45  C    0.111906
    47  C    0.111803
    49  C   -0.290367
    50  C    0.563393
    51  O   -0.318552
    52  N   -0.601502
    53  C    0.230725
    54  C    0.091775
    56  C   -0.000898
    57  C    0.005869
    58  C    0.033969
    60  C   -0.021719
    61  N   -0.344566
    62  C    0.532843
    63  C   -0.258728
    64  C    0.121541
    66  C    0.121190
    68  C   -0.258762
    69  C    0.533188
    70  N   -0.344632
    71  C   -0.021383
    72  C    0.230317
    73  N   -0.601535
    74  C    0.563121
    75  O   -0.318600
    76  C   -0.290100
    77  C    0.144504
    78  C    0.144610
    79  C    0.033868
    81  C    0.005782
    83  C   -0.000705
    85  C    0.091643
 Electronic spatial extent (au):  <R**2>=          38362.6351
 Charge=             -0.0000 electrons
 Dipole moment (field-independent basis, Debye):
    X=              0.6991    Y=             -0.0180    Z=              0.0000  Tot=              0.6994
 Quadrupole moment (field-independent basis, Debye-Ang):
   XX=           -356.0836   YY=           -323.2819   ZZ=           -370.0096
   XY=             -0.0305   XZ=              0.0000   YZ=              0.0000
 Traceless Quadrupole moment (field-independent basis, Debye-Ang):
   XX=             -6.2919   YY=             26.5098   ZZ=            -20.2179
   XY=             -0.0305   XZ=              0.0000   YZ=              0.0000
 Octapole moment (field-independent basis, Debye-Ang**2):
  XXX=              0.5039  YYY=             -0.6080  ZZZ=             -0.0000  XYY=             78.8702
  XXY=             -0.1524  XXZ=             -0.0000  XZZ=            -22.0882  YZZ=             -0.0754
  YYZ=              0.0000  XYZ=             -0.0000
 Hexadecapole moment (field-independent basis, Debye-Ang**3):
 XXXX=          -5489.1198 YYYY=         -34263.4630 ZZZZ=          -7976.0785 XXXY=             -0.5870
 XXXZ=             -0.0000 YYYX=             -1.0999 YYYZ=             -0.0000 ZZZX=             -0.0000
 ZZZY=             -0.0000 XXYY=          -7467.3067 XXZZ=          -2283.9759 YYZZ=          -8430.0961
 XXYZ=              0.0000 YYXZ=             -0.0000 ZZXY=             -0.1967
 N-N= 9.555580633112D+03 E-N=-2.547625319143D+04  KE= 2.724994621651D+03
 Symmetry A'   KE= 1.360047358942D+03
 Symmetry A"   KE= 1.364947262708D+03
 1\1\GINC-SH03-01N70\SP\RwB97XD\6-311G(d,p)\C52H24N8O4\NSIEMONS\20-Jun-
 2024\0\\# wb97xd/6-311(d,p)\\structures_preEM/step_37.pdb\\0,1\C,0,74.
 298,77.799,73.15\H,0,73.743,78.729,73.15\C,0,75.702,77.799,73.15\H,0,7
 6.257,78.729,73.15\C,0,76.397,76.613,73.15\C,0,77.887,76.662,73.15\O,0
 ,78.524,77.685,73.15\N,0,78.502,75.411,73.15\C,0,79.869,75.124,73.15\C
 ,0,81.,75.93,73.15\H,0,80.922,77.007,73.15\C,0,82.222,75.272,73.15\C,0
 ,82.308,73.873,73.15\C,0,81.172,73.081,73.15\H,0,81.225,72.,73.15\C,0,
 79.937,73.723,73.15\N,0,78.663,73.167,73.15\C,0,77.85,74.174,73.15\C,0
 ,76.398,74.137,73.15\C,0,75.701,72.949,73.15\H,0,76.255,72.018,73.15\C
 ,0,74.3,72.949,73.15\H,0,73.746,72.018,73.15\C,0,73.602,74.137,73.15\C
 ,0,72.15,74.174,73.15\N,0,71.337,73.167,73.15\C,0,70.063,73.722,73.15\
 C,0,70.131,75.124,73.15\N,0,71.498,75.41,73.15\C,0,72.113,76.662,73.15
 \O,0,71.475,77.685,73.15\C,0,73.603,76.613,73.15\C,0,74.294,75.374,73.
 15\C,0,75.706,75.374,73.15\C,0,68.828,73.081,73.15\H,0,68.775,72.,73.1
 5\C,0,67.692,73.873,73.15\H,0,66.714,73.405,73.15\C,0,67.778,75.272,73
 .15\H,0,66.866,75.858,73.15\C,0,69.,75.929,73.15\H,0,69.078,77.007,73.
 15\H,0,83.134,75.858,73.15\H,0,83.286,73.405,73.15\C,0,74.298,77.799,7
 6.85\H,0,73.743,78.729,76.85\C,0,75.702,77.799,76.85\H,0,76.257,78.729
 ,76.85\C,0,76.397,76.613,76.85\C,0,77.887,76.662,76.85\O,0,78.524,77.6
 85,76.85\N,0,78.502,75.411,76.85\C,0,79.869,75.124,76.85\C,0,81.,75.93
 ,76.85\H,0,80.922,77.007,76.85\C,0,82.222,75.272,76.85\C,0,82.308,73.8
 73,76.85\C,0,81.172,73.081,76.85\H,0,81.225,72.,76.85\C,0,79.937,73.72
 3,76.85\N,0,78.663,73.167,76.85\C,0,77.85,74.174,76.85\C,0,76.398,74.1
 37,76.85\C,0,75.701,72.949,76.85\H,0,76.255,72.018,76.85\C,0,74.3,72.9
 49,76.85\H,0,73.746,72.018,76.85\C,0,73.602,74.137,76.85\C,0,72.15,74.
 174,76.85\N,0,71.337,73.167,76.85\C,0,70.063,73.722,76.85\C,0,70.131,7
 5.124,76.85\N,0,71.498,75.41,76.85\C,0,72.113,76.662,76.85\O,0,71.475,
 77.685,76.85\C,0,73.603,76.613,76.85\C,0,74.294,75.374,76.85\C,0,75.70
 6,75.374,76.85\C,0,68.828,73.081,76.85\H,0,68.775,72.,76.85\C,0,67.692
 ,73.873,76.85\H,0,66.714,73.405,76.85\C,0,67.778,75.272,76.85\H,0,66.8
 66,75.858,76.85\C,0,69.,75.929,76.85\H,0,69.078,77.007,76.85\H,0,83.13
 4,75.858,76.85\H,0,83.286,73.405,76.85\\Version=ES64L-G16RevB.01\State
 =1-A'\HF=-2734.833006\RMSD=6.117e-09\Dipole=0.0070866,-0.2750565,0.\Qu
 adrupole=19.7093949,-4.6778495,-15.0315454,-0.022676,0.,0.\PG=CS [X(C5
 2H24N8O4)]\\@


 ALL OUR THINKING ABOUT NATURE MUST NECESSARILY MOVE IN CIRCLES OR SPIRALS;
 FOR WE CAN ONLY UNDERSTAND NATURE IF WE THINK ABOUT HER, AND WE CAN ONLY
 THINK BECAUSE OUR BRAIN IS BUILT IN ACCORDANCE WITH NATURE'S LAWS.

                                             -- TIMOTHY FERRIS, "GALAXIES"
 Job cpu time:       0 days  1 hours 15 minutes 55.0 seconds.
 Elapsed time:       0 days  0 hours  9 minutes 35.7 seconds.
 File lengths (MBytes):  RWF=    938 Int=      0 D2E=      0 Chk=     98 Scr=      1
 Normal termination of Gaussian 16 at Thu Jun 20 13:59:14 2024.
