 Entering Gaussian System, Link 0=g16
 Input=step6.gjf
 Output=step6.log
 Initial command:
 /apps/gaussian/g16-c01-avx2/g16/l1.exe "/rds/general/ephemeral/user/ns5018/ephemeral/0012/050/Gau-410350.inp" -scrdir="/rds/general/ephemeral/user/ns5018/ephemeral/0012/050/"
 Entering Link 1 = /apps/gaussian/g16-c01-avx2/g16/l1.exe PID=    410352.
  
 Copyright (c) 1988-2019, Gaussian, Inc.  All Rights Reserved.
  
 This is part of the Gaussian(R) 16 program.  It is based on
 the Gaussian(R) 09 system (copyright 2009, Gaussian, Inc.),
 the Gaussian(R) 03 system (copyright 2003, Gaussian, Inc.),
 the Gaussian(R) 98 system (copyright 1998, Gaussian, Inc.),
 the Gaussian(R) 94 system (copyright 1995, Gaussian, Inc.),
 the Gaussian 92(TM) system (copyright 1992, Gaussian, Inc.),
 the Gaussian 90(TM) system (copyright 1990, Gaussian, Inc.),
 the Gaussian 88(TM) system (copyright 1988, Gaussian, Inc.),
 the Gaussian 86(TM) system (copyright 1986, Carnegie Mellon
 University), and the Gaussian 82(TM) system (copyright 1983,
 Carnegie Mellon University). Gaussian is a federally registered
 trademark of Gaussian, Inc.
  
 This software contains proprietary and confidential information,
 including trade secrets, belonging to Gaussian, Inc.
  
 This software is provided under written license and may be
 used, copied, transmitted, or stored only in accord with that
 written license.
  
 The following legend is applicable only to US Government
 contracts under FAR:
  
                    RESTRICTED RIGHTS LEGEND
  
 Use, reproduction and disclosure by the US Government is
 subject to restrictions as set forth in subparagraphs (a)
 and (c) of the Commercial Computer Software - Restricted
 Rights clause in FAR 52.227-19.
  
 Gaussian, Inc.
 340 Quinnipiac St., Bldg. 40, Wallingford CT 06492
  
  
 ---------------------------------------------------------------
 Warning -- This program may not be used in any manner that
 competes with the business of Gaussian, Inc. or will provide
 assistance to any competitor of Gaussian, Inc.  The licensee
 of this program is prohibited from giving any competitor of
 Gaussian, Inc. access to this program.  By using this program,
 the user acknowledges that Gaussian, Inc. is engaged in the
 business of creating and licensing software in the field of
 computational chemistry and represents and warrants to the
 licensee that it is not a competitor of Gaussian, Inc. and that
 it will not use this program in any manner prohibited above.
 ---------------------------------------------------------------
  

 Cite this work as:
 Gaussian 16, Revision C.01,
 M. J. Frisch, G. W. Trucks, H. B. Schlegel, G. E. Scuseria, 
 M. A. Robb, J. R. Cheeseman, G. Scalmani, V. Barone, 
 G. A. Petersson, H. Nakatsuji, X. Li, M. Caricato, A. V. Marenich, 
 J. Bloino, B. G. Janesko, R. Gomperts, B. Mennucci, H. P. Hratchian, 
 J. V. Ortiz, A. F. Izmaylov, J. L. Sonnenberg, D. Williams-Young, 
 F. Ding, F. Lipparini, F. Egidi, J. Goings, B. Peng, A. Petrone, 
 T. Henderson, D. Ranasinghe, V. G. Zakrzewski, J. Gao, N. Rega, 
 G. Zheng, W. Liang, M. Hada, M. Ehara, K. Toyota, R. Fukuda, 
 J. Hasegawa, M. Ishida, T. Nakajima, Y. Honda, O. Kitao, H. Nakai, 
 T. Vreven, K. Throssell, J. A. Montgomery, Jr., J. E. Peralta, 
 F. Ogliaro, M. J. Bearpark, J. J. Heyd, E. N. Brothers, K. N. Kudin, 
 V. N. Staroverov, T. A. Keith, R. Kobayashi, J. Normand, 
 K. Raghavachari, A. P. Rendell, J. C. Burant, S. S. Iyengar, 
 J. Tomasi, M. Cossi, J. M. Millam, M. Klene, C. Adamo, R. Cammi, 
 J. W. Ochterski, R. L. Martin, K. Morokuma, O. Farkas, 
 J. B. Foresman, and D. J. Fox, Gaussian, Inc., Wallingford CT, 2019.
 
 ******************************************
 Gaussian 16:  ES64L-G16RevC.01  3-Jul-2019
                 6-Feb-2024 
 ******************************************
 %mem=128GB
 %nprocshared=16
 Will use up to   16 processors via shared memory.
 %Chk=checkpoint.chk
 ----------------------------------------------------------------------
 #p scrf=(smd,solvent=water) uwB97XD/6-311(d,p) Geom=AllCheck guess=rea
 d stable
 ----------------------------------------------------------------------
 1/29=7,38=1,172=1/1;
 2/12=2,40=1/2;
 3/5=4,6=6,7=101,11=2,14=-4,25=1,30=1,70=32201,72=1,74=-58,116=2/1,2,3;
 4/5=1/1;
 5/5=2,38=6,53=1/2;
 8/6=1,10=90,11=11/1;
 9/8=-1,42=1/14;
 6/7=2,8=2,9=2,10=2,28=1/1;
 99/5=1,9=1/99;
 Leave Link    1 at Tue Feb  6 02:09:58 2024, MaxMem= 17179869184 cpu:               4.2 elap:               0.3
 (Enter /apps/gaussian/g16-c01-avx2/g16/l101.exe)
 Structure from the checkpoint file:  "checkpoint.chk"
 ---
 050
 ---
 Charge = -6 Multiplicity = 1
 Redundant internal coordinates found in file.  (old form).
 C,0,6.6528035912,-1.4313678971,0.1737162379
 H,0,7.1575935814,-0.4744173533,0.2188582741
 C,0,5.2821653714,-1.4919485258,0.1817362712
 H,0,4.695410169,-0.5833297165,0.233727764
 C,0,4.6131790382,-2.7313316055,0.1224045377
 C,0,3.1705689088,-2.7513744216,0.1301513837
 O,0,2.4434942727,-1.7592961525,0.1869205593
 N,0,2.5982308088,-4.0298738049,0.0664435976
 C,0,3.2988012595,-5.2325468978,0.0056130135
 N,0,2.512457931,-6.2803909309,-0.0370229298
 C,0,4.7339610766,-5.2020733429,-0.0055917213
 C,0,5.4962699132,-6.3775812172,-0.0736912231
 H,0,4.9922439794,-7.3346250567,-0.1178609838
 C,0,6.8715787529,-6.3156418853,-0.0847628453
 H,0,7.4589537224,-7.2234614596,-0.1380533619
 C,0,7.5263441833,-5.0768385211,-0.0269258559
 C,0,8.9596460596,-4.9788926884,-0.0348551514
 N,0,9.8345811542,-5.9518385627,-0.0930342012
 C,0,11.0750594073,-5.3340488857,-0.0693134825
 C,0,12.3327023459,-5.9252285405,-0.1082587883
 H,0,12.4576125307,-6.9993812854,-0.1655748237
 C,0,13.4211279396,-5.0612407163,-0.0691353704
 C,0,13.2395723423,-3.6597941663,0.006265327
 C,0,11.9975576031,-3.0431852824,0.0466118424
 H,0,11.873494211,-1.9763159221,0.1061188625
 C,0,10.9301784879,-3.9283377246,0.0060907132
 N,0,9.5504799775,-3.7187655548,0.0268916
 C,0,8.8680780625,-2.4988442799,0.0984514888
 O,0,9.5021284956,-1.4445125924,0.1494425544
 C,0,7.4277827075,-2.606185935,0.1055464062
 C,0,6.7879383576,-3.8752578509,0.0441060838
 C,0,5.362474159,-3.9389003363,0.0533377453
 C,0,18.1777921632,0.0075964291,0.1826948199
 H,0,18.540388433,1.0266091043,0.2347528398
 C,0,16.8298265116,-0.2479509576,0.1744730035
 H,0,16.1189137458,0.5676339933,0.2195207806
 C,0,16.3451140536,-1.5692502262,0.1062140164
 C,0,14.9186198139,-1.7952680545,0.0989049966
 O,0,14.0595492638,-0.9145610384,0.1497802038
 N,0,14.5343644269,-3.1392237732,0.0272672936
 C,0,15.3985957174,-4.2301514642,-0.0343673381
 N,0,14.7702705722,-5.3779012363,-0.0926587258
 C,0,16.8161269653,-3.99659342,-0.0262226473
 C,0,17.7376903102,-5.0520964733,-0.0839372849
 H,0,17.3743076123,-6.0704733454,-0.1372961725
 C,0,19.0905132818,-4.796799945,-0.0726609954
 H,0,19.8007036779,-5.6126509989,-0.1167368374
 C,0,19.5627352312,-3.4777366305,-0.0044739391
 C,0,20.966591909,-3.1780801833,0.0069412991
 N,0,21.9724018175,-4.017527092,-0.0355568095
 C,0,23.1091378476,-3.2299000861,-0.0040015542
 C,0,24.4393109968,-3.6361014274,-0.0283655093
 H,0,24.7195042636,-4.6807087985,-0.0755781752
 C,0,25.3854631832,-2.6231307306,0.009328075
 C,0,25.0086813369,-1.2638377632,0.0676496079
 C,0,23.6947988514,-0.8268717895,0.0963540041
 H,0,23.4178112631,0.2119119332,0.1414676447
 C,0,22.7654582589,-1.8578934033,0.0594144177
 N,0,21.3724904522,-1.846742991,0.0678472853
 C,0,20.5220454299,-0.7336891492,0.1314449077
 O,0,21.0020654563,0.3987543496,0.188296012
 C,0,19.1133301958,-1.0452076602,0.1234872815
 C,0,18.6611316487,-2.392490229,0.0543365416
 C,0,17.2591005167,-2.6576379685,0.0448940798
 C,0,29.4435420383,3.0328743854,0.1566037414
 H,0,29.6580969724,4.0933806769,0.1862731685
 C,0,28.1137746043,2.5857121992,0.1621892809
 H,0,27.3026994409,3.3017901939,0.1963928392
 C,0,27.8329719446,1.240829393,0.1241545233
 C,0,26.413891744,0.8083824477,0.1295721827
 O,0,25.4748769546,1.5756009879,0.1685545175
 N,0,26.2211355946,-0.5656029037,0.0844602781
 C,0,27.2301680917,-1.5304111204,0.0377043454
 N,0,26.7734949301,-2.7421837821,-0.005956052
 C,0,28.6181324148,-1.1055629403,0.0383891096
 C,0,29.6590736103,-2.0071073257,-0.0036615537
 H,0,29.4505783219,-3.0686197458,-0.0346630112
 C,0,30.9863423516,-1.5604236144,-0.0079273892
 H,0,31.7941757691,-2.2799247183,-0.0422814578
 C,0,31.2704989336,-0.2129263072,0.0292833444
 C,0,32.63278165,0.2881035648,0.0209166445
 N,0,33.727918488,-0.4022357645,-0.0259401303
 C,0,34.7649023909,0.5305170903,-0.019591106
 C,0,36.129588107,0.291994206,-0.0641821292
 H,0,36.5325398061,-0.7121400989,-0.1089010359
 C,0,36.9549690899,1.4165256184,-0.0512743847
 C,0,36.3977348851,2.7224910095,0.0075044105
 C,0,35.0329486805,2.9801651866,0.0534819286
 H,0,34.6294694773,3.9763438492,0.0963345738
 C,0,34.2452518156,1.8411343154,0.0366203394
 N,0,32.8545706889,1.6665789768,0.0627461661
 C,0,31.8728795074,2.6425306277,0.1077173705
 O,0,32.1546906919,3.8232393959,0.1392656714
 C,0,30.4790496713,2.1303798057,0.1131018052
 C,0,30.2187665809,0.7368215075,0.0745305242
 C,0,28.8815231392,0.2868314621,0.0792416733
 C,0,40.1153694011,7.6100342475,0.0540447899
 H,0,40.1957287381,8.6902671167,0.0883254836
 C,0,38.9076129514,7.0096911797,0.0733011887
 H,0,37.9997423274,7.5990810587,0.1233682396
 C,0,38.788021064,5.5716542048,0.0278404112
 C,0,37.5033388114,4.9811350533,0.048547935
 O,0,36.4070048232,5.5829319311,0.1031421875
 N,0,37.4996212083,3.5737842119,0.0021519077
 C,0,38.6282298518,2.7597694387,-0.0591787963
 N,0,38.3264766847,1.4674357905,-0.0911554027
 C,0,39.909453028,3.3652881978,-0.0813735754
 C,0,41.1033241966,2.5818752461,-0.1476470238
 H,0,41.0185578214,1.5025448037,-0.180153834
 C,0,42.3169269059,3.1865844276,-0.1696054084
 H,0,43.2284763156,2.6036322835,-0.2202137363
 C,0,42.4125846978,4.6120140192,-0.1252140896
 C,0,43.6686548437,5.2705868264,-0.1465637176
 N,0,44.8807908216,4.7313559082,-0.2083323577
 C,0,45.7447217126,5.7991293054,-0.2018009373
 C,0,47.143644513,5.801595017,-0.2518167632
 H,0,47.6890393356,4.8659839377,-0.3040746765
 C,0,47.8010557797,7.0200795112,-0.2332199193
 H,0,48.8847615615,7.0422896931,-0.2714324653
 C,0,47.0927574624,8.230015479,-0.1651852975
 H,0,47.6368971348,9.1674135291,-0.1516444777
 C,0,45.7055028685,8.2507469274,-0.1142945953
 H,0,45.1586811173,9.1800838856,-0.0601140648
 C,0,45.0486066829,7.0230821189,-0.1341539089
 N,0,43.7020016878,6.6617611915,-0.0992237288
 C,0,42.5786820924,7.5064780024,-0.03154344
 O,0,42.7595373893,8.745072651,0.0055236229
 C,0,41.3327567846,6.8376971793,-0.0126619654
 C,0,41.2575203219,5.4150577551,-0.0586231944
 C,0,39.9661218757,4.7725549738,-0.0370526128
 C,0,-25.1597251841,-1.4640462121,-0.2380884863
 C,0,-24.7479720808,-0.1238681651,-0.1699529991
 C,0,-24.2402544294,-2.4991647532,-0.2566096567
 C,0,-23.4024969981,0.214633803,-0.1188826704
 C,0,-22.8780994527,-2.1805635188,-0.2064125644
 C,0,-22.4814208918,-0.8295382468,-0.1386662191
 C,0,-20.7361533703,-2.2186214699,-0.150909783
 N,0,-21.7922039689,-3.0216039421,-0.2128393586
 C,0,-20.1883361863,0.2077153356,-0.0357332438
 N,0,-21.0878413552,-0.8722213858,-0.1035646536
 C,0,-19.362482514,-2.5713989393,-0.1294018575
 C,0,-18.9422862316,-3.9368421947,-0.1737900254
 O,0,-20.6485838944,1.3717593911,0.0013177999
 C,0,-18.8221967654,-0.1573255224,-0.0166954482
 C,0,-18.4225169474,-1.5247389752,-0.0626562839
 C,0,-17.6223095175,-4.2469380752,-0.1516784024
 C,0,-17.8145250724,0.8737480322,0.050173653
 C,0,-17.018147978,-1.8537686342,-0.0409229195
 C,0,-16.6400680274,-3.2104802998,-0.0852455025
 C,0,-16.5012401462,0.5665603612,0.0695821904
 H,0,-24.5564005455,-3.5349577477,-0.3089450825
 C,0,-16.0548553156,-0.8056618128,0.0241274233
 C,0,-15.2540894282,-3.5058476851,-0.0628884967
 C,0,-14.6689516091,-1.0856359866,0.044996678
 H,0,-23.0835225816,1.24464744,-0.0646241761
 C,0,-13.0745649191,-3.0303145333,0.0040830742
 C,0,-6.3771712552,-1.1324781041,0.1540821065
 C,0,-11.8053280561,-2.466347588,0.0502385729
 N,0,-14.3423904824,-2.4545798626,-0.0014070667
 C,0,-13.3172505181,-4.4292962765,-0.0547750381
 C,0,-8.6521106217,-2.0698513673,0.1048805451
 C,0,-4.980278825,-1.262574401,0.1598364085
 O,0,-13.7399688638,-0.2483291421,0.0997374347
 O,0,-9.1973369298,-0.9853141795,0.1363987596
 N,0,-14.6638393335,-4.6944553139,-0.0948334854
 C,0,-7.1779525558,-2.24850219,0.1104416701
 C,0,-10.777280104,-3.3942367393,0.0334727365
 C,0,-12.2558515668,-5.3344258564,-0.0675817719
 C,0,-10.9823177844,-4.7891221934,-0.0228127694
 C,0,-4.3983612065,-2.5071361288,0.121829801
 H,0,-19.6957397255,-4.7134057953,-0.2245200981
 C,0,-6.6048376379,-3.5451491472,0.0718968954
 C,0,-8.8514680924,-4.5358228713,0.0179692668
 N,0,-9.3836554954,-3.2450234376,0.0597773977
 C,0,-2.9179157028,-2.6024153758,0.1274193737
 C,0,-5.2000196792,-3.6762823862,0.0767789699
 O,0,-2.1800110964,-1.6402004758,0.1665598643
 C,0,-7.4105676109,-4.7108885828,0.0265099755
 N,0,-9.7589692552,-5.4590352655,-0.0290324575
 H,0,-18.1406194807,1.9067162484,0.0844510545
 C,0,-4.6241468624,-4.9710835094,0.0359586732
 C,0,-6.8247857579,-5.9572256144,-0.0106681012
 H,0,-17.2921329582,-5.2780167532,-0.1841812142
 C,0,-3.1757299181,-5.0661073311,0.0354632988
 C,0,-5.430434991,-6.0874296723,-0.0062293272
 N,0,-2.4150164831,-3.8955073188,0.0823491222
 H,0,-15.752844442,1.3485458029,0.1197703204
 H,0,-6.8293534824,-0.1495030466,0.1837292066
 H,0,-11.6412077748,-1.4041672963,0.0931488355
 H,0,-4.3551643022,-0.3794916459,0.1941464982
 N,0,-2.4531778755,-6.1407551987,-0.0081269031
 H,0,-12.417632629,-6.4042284118,-0.1123582399
 H,0,-7.4459595444,-6.8428962625,-0.0451282882
 H,0,-4.9839197229,-7.0727746351,-0.0372036164
 C,0,1.2449911276,-4.3603622057,0.0578098993
 C,0,1.225316809,-5.7746204509,-0.0056418239
 C,0,0.1038605327,-3.57010205,0.0946051586
 C,0,-1.0746918901,-4.2968964433,0.0657177275
 C,0,-1.1295032699,-5.7063760389,0.0073541477
 C,0,0.0238484033,-6.4752091915,-0.0301945585
 H,0,0.135087584,-2.4954784344,0.1397486915
 H,0,-0.0091621911,-7.5562366226,-0.077437058
 H,0,-25.4926936858,0.6636561332,-0.1564752588
 H,0,-26.2196061926,-1.691099177,-0.2764409369
 Recover connectivity data from disk.
 ITRead=  0  0  0  0  0  0  0  0  0  0  0  0  0  0  0  0  0  0  0  0
 ITRead=  0  0  0  0  0  0  0  0  0  0  0  0  0  0  0  0  0  0  0  0
 ITRead=  0  0  0  0  0  0  0  0  0  0  0  0  0  0  0  0  0  0  0  0
 ITRead=  0  0  0  0  0  0  0  0  0  0  0  0  0  0  0  0  0  0  0  0
 ITRead=  0  0  0  0  0  0  0  0  0  0  0  0  0  0  0  0  0  0  0  0
 ITRead=  0  0  0  0  0  0  0  0  0  0  0  0  0  0  0  0  0  0  0  0
 ITRead=  0  0  0  0  0  0  0  0  0  0  0  0  0  0  0  0  0  0  0  0
 ITRead=  0  0  0  0  0  0  0  0  0  0  0  0  0  0  0  0  0  0  0  0
 ITRead=  0  0  0  0  0  0  0  0  0  0  0  0  0  0  0  0  0  0  0  0
 ITRead=  0  0  0  0  0  0  0  0  0  0  0  0  0  0  0  0  0  0  0  0
 ITRead=  0  0  0  0
 MicOpt= -1 -1 -1 -1 -1 -1 -1 -1 -1 -1 -1 -1 -1 -1 -1 -1 -1 -1 -1 -1
 MicOpt= -1 -1 -1 -1 -1 -1 -1 -1 -1 -1 -1 -1 -1 -1 -1 -1 -1 -1 -1 -1
 MicOpt= -1 -1 -1 -1 -1 -1 -1 -1 -1 -1 -1 -1 -1 -1 -1 -1 -1 -1 -1 -1
 MicOpt= -1 -1 -1 -1 -1 -1 -1 -1 -1 -1 -1 -1 -1 -1 -1 -1 -1 -1 -1 -1
 MicOpt= -1 -1 -1 -1 -1 -1 -1 -1 -1 -1 -1 -1 -1 -1 -1 -1 -1 -1 -1 -1
 MicOpt= -1 -1 -1 -1 -1 -1 -1 -1 -1 -1 -1 -1 -1 -1 -1 -1 -1 -1 -1 -1
 MicOpt= -1 -1 -1 -1 -1 -1 -1 -1 -1 -1 -1 -1 -1 -1 -1 -1 -1 -1 -1 -1
 MicOpt= -1 -1 -1 -1 -1 -1 -1 -1 -1 -1 -1 -1 -1 -1 -1 -1 -1 -1 -1 -1
 MicOpt= -1 -1 -1 -1 -1 -1 -1 -1 -1 -1 -1 -1 -1 -1 -1 -1 -1 -1 -1 -1
 MicOpt= -1 -1 -1 -1 -1 -1 -1 -1 -1 -1 -1 -1 -1 -1 -1 -1 -1 -1 -1 -1
 MicOpt= -1 -1 -1 -1
                           ----------------------------
                           !    Current Parameters    !
                           ! (Angstroms and Degrees)  !
 --------------------------                            --------------------------
 ! Name  Definition              Value                                          !
 --------------------------------------------------------------------------------
 ! R1    R(1,2)                  1.0829                                         !
 ! R2    R(1,3)                  1.372                                          !
 ! R3    R(1,30)                 1.4091                                         !
 ! R4    R(3,4)                  1.0829                                         !
 ! R5    R(3,5)                  1.4097                                         !
 ! R6    R(5,6)                  1.4428                                         !
 ! R7    R(5,32)                 1.4228                                         !
 ! R8    R(6,7)                  1.2313                                         !
 ! R9    R(6,8)                  1.4022                                         !
 ! R10   R(8,9)                  1.3932                                         !
 ! R11   R(8,195)                1.393                                          !
 ! R12   R(9,10)                 1.3108                                         !
 ! R13   R(9,11)                 1.4355                                         !
 ! R14   R(10,196)               1.3833                                         !
 ! R15   R(11,12)                1.4027                                         !
 ! R16   R(11,32)                1.4121                                         !
 ! R17   R(12,13)                1.0826                                         !
 ! R18   R(12,14)                1.3767                                         !
 ! R19   R(14,15)                1.0826                                         !
 ! R20   R(14,16)                1.4024                                         !
 ! R21   R(16,17)                1.4367                                         !
 ! R22   R(16,31)                1.4121                                         !
 ! R23   R(17,18)                1.3098                                         !
 ! R24   R(17,27)                1.3931                                         !
 ! R25   R(18,19)                1.386                                          !
 ! R26   R(19,20)                1.3902                                         !
 ! R27   R(19,26)                1.4152                                         !
 ! R28   R(20,21)                1.0829                                         !
 ! R29   R(20,22)                1.3902                                         !
 ! R30   R(22,23)                1.4152                                         !
 ! R31   R(22,42)                1.386                                          !
 ! R32   R(23,24)                1.3872                                         !
 ! R33   R(23,40)                1.3957                                         !
 ! R34   R(24,25)                1.0757                                         !
 ! R35   R(24,26)                1.3872                                         !
 ! R36   R(26,27)                1.3957                                         !
 ! R37   R(27,28)                1.3996                                         !
 ! R38   R(28,29)                1.2314                                         !
 ! R39   R(28,30)                1.4443                                         !
 ! R40   R(30,31)                1.4226                                         !
 ! R41   R(31,32)                1.4269                                         !
 ! R42   R(33,34)                1.0829                                         !
 ! R43   R(33,35)                1.372                                          !
 ! R44   R(33,62)                1.4097                                         !
 ! R45   R(35,36)                1.0829                                         !
 ! R46   R(35,37)                1.4091                                         !
 ! R47   R(37,38)                1.4443                                         !
 ! R48   R(37,64)                1.4226                                         !
 ! R49   R(38,39)                1.2314                                         !
 ! R50   R(38,40)                1.3996                                         !
 ! R51   R(40,41)                1.3931                                         !
 ! R52   R(41,42)                1.3098                                         !
 ! R53   R(41,43)                1.4367                                         !
 ! R54   R(43,44)                1.4024                                         !
 ! R55   R(43,64)                1.4121                                         !
 ! R56   R(44,45)                1.0826                                         !
 ! R57   R(44,46)                1.3767                                         !
 ! R58   R(46,47)                1.0826                                         !
 ! R59   R(46,48)                1.4027                                         !
 ! R60   R(48,49)                1.4355                                         !
 ! R61   R(48,63)                1.4121                                         !
 ! R62   R(49,50)                1.3108                                         !
 ! R63   R(49,59)                1.3932                                         !
 ! R64   R(50,51)                1.3833                                         !
 ! R65   R(51,52)                1.391                                          !
 ! R66   R(51,58)                1.4158                                         !
 ! R67   R(52,53)                1.0826                                         !
 ! R68   R(52,54)                1.3866                                         !
 ! R69   R(54,55)                1.4118                                         !
 ! R70   R(54,74)                1.3932                                         !
 ! R71   R(55,56)                1.3849                                         !
 ! R72   R(55,72)                1.3992                                         !
 ! R73   R(56,57)                1.076                                          !
 ! R74   R(56,58)                1.3885                                         !
 ! R75   R(58,59)                1.393                                          !
 ! R76   R(59,60)                1.4022                                         !
 ! R77   R(60,61)                1.2313                                         !
 ! R78   R(60,62)                1.4428                                         !
 ! R79   R(62,63)                1.4228                                         !
 ! R80   R(63,64)                1.4269                                         !
 ! R81   R(65,66)                1.0824                                         !
 ! R82   R(65,67)                1.4029                                         !
 ! R83   R(65,94)                1.3743                                         !
 ! R84   R(67,68)                1.0825                                         !
 ! R85   R(67,69)                1.3744                                         !
 ! R86   R(69,70)                1.4835                                         !
 ! R87   R(69,96)                1.4183                                         !
 ! R88   R(70,71)                1.2132                                         !
 ! R89   R(70,72)                1.3882                                         !
 ! R90   R(72,73)                1.3968                                         !
 ! R91   R(73,74)                1.2957                                         !
 ! R92   R(73,75)                1.4515                                         !
 ! R93   R(75,76)                1.3777                                         !
 ! R94   R(75,96)                1.4177                                         !
 ! R95   R(76,77)                1.0822                                         !
 ! R96   R(76,78)                1.4004                                         !
 ! R97   R(78,79)                1.0823                                         !
 ! R98   R(78,80)                1.3776                                         !
 ! R99   R(80,81)                1.4515                                         !
 ! R100  R(80,95)                1.4178                                         !
 ! R101  R(81,82)                1.2954                                         !
 ! R102  R(81,91)                1.3968                                         !
 ! R103  R(82,83)                1.3948                                         !
 ! R104  R(83,84)                1.3861                                         !
 ! R105  R(83,90)                1.411                                          !
 ! R106  R(84,85)                1.0829                                         !
 ! R107  R(84,86)                1.395                                          !
 ! R108  R(86,87)                1.4211                                         !
 ! R109  R(86,106)               1.373                                          !
 ! R110  R(87,88)                1.3897                                         !
 ! R111  R(87,104)               1.3924                                         !
 ! R112  R(88,89)                1.0756                                         !
 ! R113  R(88,90)                1.385                                          !
 ! R114  R(90,91)                1.4018                                         !
 ! R115  R(91,92)                1.385                                          !
 ! R116  R(92,93)                1.2143                                         !
 ! R117  R(92,94)                1.485                                          !
 ! R118  R(94,95)                1.4182                                         !
 ! R119  R(95,96)                1.4109                                         !
 ! R120  R(97,98)                1.0838                                         !
 ! R121  R(97,99)                1.3489                                         !
 ! R122  R(97,128)               1.4433                                         !
 ! R123  R(99,100)               1.0836                                         !
 ! R124  R(99,101)               1.4437                                         !
 ! R125  R(101,102)              1.4141                                         !
 ! R126  R(101,130)              1.425                                          !
 ! R127  R(102,103)              1.2518                                         !
 ! R128  R(102,104)              1.4081                                         !
 ! R129  R(104,105)              1.3929                                         !
 ! R130  R(105,106)              1.3275                                         !
 ! R131  R(105,107)              1.4173                                         !
 ! R132  R(107,108)              1.4295                                         !
 ! R133  R(107,130)              1.4091                                         !
 ! R134  R(108,109)              1.0831                                         !
 ! R135  R(108,110)              1.3561                                         !
 ! R136  R(110,111)              1.0832                                         !
 ! R137  R(110,112)              1.4293                                         !
 ! R138  R(112,113)              1.4184                                         !
 ! R139  R(112,129)              1.4084                                         !
 ! R140  R(113,114)              1.3281                                         !
 ! R141  R(113,125)              1.3924                                         !
 ! R142  R(114,115)              1.3735                                         !
 ! R143  R(115,116)              1.3998                                         !
 ! R144  R(115,124)              1.4097                                         !
 ! R145  R(116,117)              1.0842                                         !
 ! R146  R(116,118)              1.3846                                         !
 ! R147  R(118,119)              1.0846                                         !
 ! R148  R(118,120)              1.4037                                         !
 ! R149  R(120,121)              1.084                                          !
 ! R150  R(120,122)              1.3883                                         !
 ! R151  R(122,123)              1.0796                                         !
 ! R152  R(122,124)              1.3925                                         !
 ! R153  R(124,125)              1.3947                                         !
 ! R154  R(125,126)              1.4071                                         !
 ! R155  R(126,127)              1.2523                                         !
 ! R156  R(126,128)              1.4142                                         !
 ! R157  R(128,129)              1.4254                                         !
 ! R158  R(129,130)              1.4426                                         !
 ! R159  R(131,132)              1.4037                                         !
 ! R160  R(131,133)              1.3846                                         !
 ! R161  R(131,204)              1.0846                                         !
 ! R162  R(132,134)              1.3883                                         !
 ! R163  R(132,203)              1.084                                          !
 ! R164  R(133,135)              1.3998                                         !
 ! R165  R(133,151)              1.0842                                         !
 ! R166  R(134,136)              1.3925                                         !
 ! R167  R(134,155)              1.0796                                         !
 ! R168  R(135,136)              1.4097                                         !
 ! R169  R(135,138)              1.3735                                         !
 ! R170  R(136,140)              1.3947                                         !
 ! R171  R(137,138)              1.3281                                         !
 ! R172  R(137,140)              1.3924                                         !
 ! R173  R(137,141)              1.4184                                         !
 ! R174  R(139,140)              1.4071                                         !
 ! R175  R(139,143)              1.2523                                         !
 ! R176  R(139,144)              1.4142                                         !
 ! R177  R(141,142)              1.4293                                         !
 ! R178  R(141,145)              1.4084                                         !
 ! R179  R(142,146)              1.3561                                         !
 ! R180  R(142,171)              1.0832                                         !
 ! R181  R(144,145)              1.4254                                         !
 ! R182  R(144,147)              1.4433                                         !
 ! R183  R(145,148)              1.4426                                         !
 ! R184  R(146,149)              1.4295                                         !
 ! R185  R(146,183)              1.0831                                         !
 ! R186  R(147,150)              1.3489                                         !
 ! R187  R(147,180)              1.0838                                         !
 ! R188  R(148,149)              1.4091                                         !
 ! R189  R(148,152)              1.425                                          !
 ! R190  R(149,153)              1.4173                                         !
 ! R191  R(150,152)              1.4437                                         !
 ! R192  R(150,187)              1.0836                                         !
 ! R193  R(152,154)              1.4141                                         !
 ! R194  R(153,159)              1.3929                                         !
 ! R195  R(153,165)              1.3275                                         !
 ! R196  R(154,159)              1.4081                                         !
 ! R197  R(154,163)              1.2518                                         !
 ! R198  R(156,158)              1.3897                                         !
 ! R199  R(156,159)              1.3924                                         !
 ! R200  R(156,160)              1.4211                                         !
 ! R201  R(157,162)              1.4029                                         !
 ! R202  R(157,166)              1.3743                                         !
 ! R203  R(157,188)              1.0824                                         !
 ! R204  R(158,167)              1.385                                          !
 ! R205  R(158,189)              1.0756                                         !
 ! R206  R(160,165)              1.373                                          !
 ! R207  R(160,168)              1.395                                          !
 ! R208  R(161,164)              1.2143                                         !
 ! R209  R(161,166)              1.485                                          !
 ! R210  R(161,174)              1.385                                          !
 ! R211  R(162,170)              1.3744                                         !
 ! R212  R(162,190)              1.0825                                         !
 ! R213  R(166,172)              1.4182                                         !
 ! R214  R(167,169)              1.411                                          !
 ! R215  R(167,174)              1.4018                                         !
 ! R216  R(168,169)              1.3861                                         !
 ! R217  R(168,192)              1.0829                                         !
 ! R218  R(169,179)              1.3948                                         !
 ! R219  R(170,175)              1.4835                                         !
 ! R220  R(170,176)              1.4183                                         !
 ! R221  R(172,176)              1.4109                                         !
 ! R222  R(172,178)              1.4178                                         !
 ! R223  R(173,174)              1.3968                                         !
 ! R224  R(173,178)              1.4515                                         !
 ! R225  R(173,179)              1.2954                                         !
 ! R226  R(175,177)              1.2132                                         !
 ! R227  R(175,186)              1.3882                                         !
 ! R228  R(176,181)              1.4177                                         !
 ! R229  R(178,182)              1.3776                                         !
 ! R230  R(181,184)              1.4515                                         !
 ! R231  R(181,185)              1.3777                                         !
 ! R232  R(182,185)              1.4004                                         !
 ! R233  R(182,193)              1.0823                                         !
 ! R234  R(184,186)              1.3968                                         !
 ! R235  R(184,191)              1.2957                                         !
 ! R236  R(185,194)              1.0822                                         !
 ! R237  R(186,198)              1.3992                                         !
 ! R238  R(191,199)              1.3932                                         !
 ! R239  R(195,196)              1.4158                                         !
 ! R240  R(195,197)              1.3885                                         !
 ! R241  R(196,200)              1.391                                          !
 ! R242  R(197,198)              1.3849                                         !
 ! R243  R(197,201)              1.076                                          !
 ! R244  R(198,199)              1.4118                                         !
 ! R245  R(199,200)              1.3866                                         !
 ! R246  R(200,202)              1.0826                                         !
 ! A1    A(2,1,3)              120.2964                                         !
 ! A2    A(2,1,30)             118.8449                                         !
 ! A3    A(3,1,30)             120.8586                                         !
 ! A4    A(1,3,4)              120.3017                                         !
 ! A5    A(1,3,5)              120.8424                                         !
 ! A6    A(4,3,5)              118.856                                          !
 ! A7    A(3,5,6)              119.1114                                         !
 ! A8    A(3,5,32)             119.8886                                         !
 ! A9    A(6,5,32)             120.9999                                         !
 ! A10   A(5,6,7)              125.4144                                         !
 ! A11   A(5,6,8)              114.8691                                         !
 ! A12   A(7,6,8)              119.7165                                         !
 ! A13   A(6,8,9)              125.7207                                         !
 ! A14   A(6,8,195)            127.8141                                         !
 ! A15   A(9,8,195)            106.4645                                         !
 ! A16   A(8,9,10)             112.9452                                         !
 ! A17   A(8,9,11)             118.9959                                         !
 ! A18   A(10,9,11)            128.0588                                         !
 ! A19   A(9,10,196)           105.3778                                         !
 ! A20   A(9,11,12)            121.7294                                         !
 ! A21   A(9,11,32)            117.6217                                         !
 ! A22   A(12,11,32)           120.6489                                         !
 ! A23   A(11,12,13)           119.3289                                         !
 ! A24   A(11,12,14)           120.3697                                         !
 ! A25   A(13,12,14)           120.3014                                         !
 ! A26   A(12,14,15)           120.3095                                         !
 ! A27   A(12,14,16)           120.3855                                         !
 ! A28   A(15,14,16)           119.3051                                         !
 ! A29   A(14,16,17)           121.7218                                         !
 ! A30   A(14,16,31)           120.636                                          !
 ! A31   A(17,16,31)           117.6421                                         !
 ! A32   A(16,17,18)           128.0275                                         !
 ! A33   A(16,17,27)           118.9819                                         !
 ! A34   A(18,17,27)           112.9905                                         !
 ! A35   A(17,18,19)           105.4262                                         !
 ! A36   A(18,19,20)           128.2893                                         !
 ! A37   A(18,19,26)           110.6121                                         !
 ! A38   A(20,19,26)           121.0986                                         !
 ! A39   A(19,20,21)           121.846                                          !
 ! A40   A(19,20,22)           116.308                                          !
 ! A41   A(21,20,22)           121.846                                          !
 ! A42   A(20,22,23)           121.0986                                         !
 ! A43   A(20,22,42)           128.2893                                         !
 ! A44   A(23,22,42)           110.6121                                         !
 ! A45   A(22,23,24)           123.8202                                         !
 ! A46   A(22,23,40)           104.5458                                         !
 ! A47   A(24,23,40)           131.634                                          !
 ! A48   A(23,24,25)           123.0727                                         !
 ! A49   A(23,24,26)           113.8546                                         !
 ! A50   A(25,24,26)           123.0727                                         !
 ! A51   A(19,26,24)           123.8202                                         !
 ! A52   A(19,26,27)           104.5458                                         !
 ! A53   A(24,26,27)           131.634                                          !
 ! A54   A(17,27,26)           106.4254                                         !
 ! A55   A(17,27,28)           125.7235                                         !
 ! A56   A(26,27,28)           127.851                                          !
 ! A57   A(27,28,29)           119.8253                                         !
 ! A58   A(27,28,30)           114.9403                                         !
 ! A59   A(29,28,30)           125.2344                                         !
 ! A60   A(1,30,28)            119.1268                                         !
 ! A61   A(1,30,31)            119.9013                                         !
 ! A62   A(28,30,31)           120.972                                          !
 ! A63   A(16,31,30)           121.7402                                         !
 ! A64   A(16,31,32)           118.996                                          !
 ! A65   A(30,31,32)           119.2638                                         !
 ! A66   A(5,32,11)            121.7909                                         !
 ! A67   A(5,32,31)            119.2453                                         !
 ! A68   A(11,32,31)           118.9638                                         !
 ! A69   A(34,33,35)           120.3017                                         !
 ! A70   A(34,33,62)           118.856                                          !
 ! A71   A(35,33,62)           120.8424                                         !
 ! A72   A(33,35,36)           120.2964                                         !
 ! A73   A(33,35,37)           120.8586                                         !
 ! A74   A(36,35,37)           118.8449                                         !
 ! A75   A(35,37,38)           119.1268                                         !
 ! A76   A(35,37,64)           119.9013                                         !
 ! A77   A(38,37,64)           120.972                                          !
 ! A78   A(37,38,39)           125.2344                                         !
 ! A79   A(37,38,40)           114.9403                                         !
 ! A80   A(39,38,40)           119.8253                                         !
 ! A81   A(23,40,38)           127.851                                          !
 ! A82   A(23,40,41)           106.4254                                         !
 ! A83   A(38,40,41)           125.7235                                         !
 ! A84   A(40,41,42)           112.9905                                         !
 ! A85   A(40,41,43)           118.9819                                         !
 ! A86   A(42,41,43)           128.0275                                         !
 ! A87   A(22,42,41)           105.4262                                         !
 ! A88   A(41,43,44)           121.7218                                         !
 ! A89   A(41,43,64)           117.6421                                         !
 ! A90   A(44,43,64)           120.636                                          !
 ! A91   A(43,44,45)           119.3051                                         !
 ! A92   A(43,44,46)           120.3855                                         !
 ! A93   A(45,44,46)           120.3095                                         !
 ! A94   A(44,46,47)           120.3013                                         !
 ! A95   A(44,46,48)           120.3697                                         !
 ! A96   A(47,46,48)           119.3289                                         !
 ! A97   A(46,48,49)           121.7294                                         !
 ! A98   A(46,48,63)           120.6489                                         !
 ! A99   A(49,48,63)           117.6217                                         !
 ! A100  A(48,49,50)           128.0588                                         !
 ! A101  A(48,49,59)           118.9959                                         !
 ! A102  A(50,49,59)           112.9452                                         !
 ! A103  A(49,50,51)           105.3778                                         !
 ! A104  A(50,51,52)           128.2533                                         !
 ! A105  A(50,51,58)           110.6899                                         !
 ! A106  A(52,51,58)           121.0568                                         !
 ! A107  A(51,52,53)           122.0083                                         !
 ! A108  A(51,52,54)           116.0202                                         !
 ! A109  A(53,52,54)           121.9714                                         !
 ! A110  A(52,54,55)           121.4931                                         !
 ! A111  A(52,54,74)           128.1032                                         !
 ! A112  A(55,54,74)           110.4034                                         !
 ! A113  A(54,55,56)           123.9067                                         !
 ! A114  A(54,55,72)           104.4599                                         !
 ! A115  A(56,55,72)           131.6334                                         !
 ! A116  A(55,56,57)           123.3446                                         !
 ! A117  A(55,56,58)           113.5862                                         !
 ! A118  A(57,56,58)           123.0692                                         !
 ! A119  A(51,58,56)           123.9363                                         !
 ! A120  A(51,58,59)           104.5224                                         !
 ! A121  A(56,58,59)           131.5409                                         !
 ! A122  A(49,59,58)           106.4645                                         !
 ! A123  A(49,59,60)           125.7207                                         !
 ! A124  A(58,59,60)           127.8141                                         !
 ! A125  A(59,60,61)           119.7165                                         !
 ! A126  A(59,60,62)           114.8691                                         !
 ! A127  A(61,60,62)           125.4144                                         !
 ! A128  A(33,62,60)           119.1114                                         !
 ! A129  A(33,62,63)           119.8886                                         !
 ! A130  A(60,62,63)           120.9999                                         !
 ! A131  A(48,63,62)           121.7909                                         !
 ! A132  A(48,63,64)           118.9638                                         !
 ! A133  A(62,63,64)           119.2453                                         !
 ! A134  A(37,64,43)           121.7402                                         !
 ! A135  A(37,64,63)           119.2638                                         !
 ! A136  A(43,64,63)           118.996                                          !
 ! A137  A(66,65,67)           120.0037                                         !
 ! A138  A(66,65,94)           119.665                                          !
 ! A139  A(67,65,94)           120.3313                                         !
 ! A140  A(65,67,68)           119.9648                                         !
 ! A141  A(65,67,69)           120.3594                                         !
 ! A142  A(68,67,69)           119.6758                                         !
 ! A143  A(67,69,70)           118.7226                                         !
 ! A144  A(67,69,96)           120.5316                                         !
 ! A145  A(70,69,96)           120.7457                                         !
 ! A146  A(69,70,71)           123.7897                                         !
 ! A147  A(69,70,72)           114.9121                                         !
 ! A148  A(71,70,72)           121.2982                                         !
 ! A149  A(55,72,70)           127.9245                                         !
 ! A150  A(55,72,73)           106.3119                                         !
 ! A151  A(70,72,73)           125.7625                                         !
 ! A152  A(72,73,74)           113.1096                                         !
 ! A153  A(72,73,75)           119.2454                                         !
 ! A154  A(74,73,75)           127.6447                                         !
 ! A155  A(54,74,73)           105.7151                                         !
 ! A156  A(73,75,76)           122.0679                                         !
 ! A157  A(73,75,96)           117.7192                                         !
 ! A158  A(76,75,96)           120.2126                                         !
 ! A159  A(75,76,77)           119.8122                                         !
 ! A160  A(75,76,78)           120.4946                                         !
 ! A161  A(77,76,78)           119.6932                                         !
 ! A162  A(76,78,79)           119.6994                                         !
 ! A163  A(76,78,80)           120.4903                                         !
 ! A164  A(79,78,80)           119.8102                                         !
 ! A165  A(78,80,81)           122.0765                                         !
 ! A166  A(78,80,95)           120.2031                                         !
 ! A167  A(81,80,95)           117.7202                                         !
 ! A168  A(80,81,82)           127.5666                                         !
 ! A169  A(80,81,91)           119.3068                                         !
 ! A170  A(82,81,91)           113.1263                                         !
 ! A171  A(81,82,83)           105.7824                                         !
 ! A172  A(82,83,84)           128.0805                                         !
 ! A173  A(82,83,90)           110.337                                          !
 ! A174  A(84,83,90)           121.5822                                         !
 ! A175  A(83,84,85)           121.8203                                         !
 ! A176  A(83,84,86)           116.3288                                         !
 ! A177  A(85,84,86)           121.8508                                         !
 ! A178  A(84,86,87)           120.61                                           !
 ! A179  A(84,86,106)          128.3629                                         !
 ! A180  A(87,86,106)          111.027                                          !
 ! A181  A(86,87,88)           123.8394                                         !
 ! A182  A(86,87,104)          104.5595                                         !
 ! A183  A(88,87,104)          131.6009                                         !
 ! A184  A(87,88,89)           122.7814                                         !
 ! A185  A(87,88,90)           113.933                                          !
 ! A186  A(89,88,90)           123.2855                                         !
 ! A187  A(83,90,88)           123.7065                                         !
 ! A188  A(83,90,91)           104.5034                                         !
 ! A189  A(88,90,91)           131.7899                                         !
 ! A190  A(81,91,90)           106.2507                                         !
 ! A191  A(81,91,92)           125.7202                                         !
 ! A192  A(90,91,92)           128.0264                                         !
 ! A193  A(91,92,93)           121.4342                                         !
 ! A194  A(91,92,94)           114.9857                                         !
 ! A195  A(93,92,94)           123.58                                           !
 ! A196  A(65,94,92)           118.7424                                         !
 ! A197  A(65,94,95)           120.522                                          !
 ! A198  A(92,94,95)           120.7356                                         !
 ! A199  A(80,95,94)           121.5309                                         !
 ! A200  A(80,95,96)           119.309                                          !
 ! A201  A(94,95,96)           119.16                                           !
 ! A202  A(69,96,75)           121.6141                                         !
 ! A203  A(69,96,95)           119.0957                                         !
 ! A204  A(75,96,95)           119.2902                                         !
 ! A205  A(98,97,99)           120.6346                                         !
 ! A206  A(98,97,128)          118.1844                                         !
 ! A207  A(99,97,128)          121.1809                                         !
 ! A208  A(97,99,100)          120.5819                                         !
 ! A209  A(97,99,101)          121.1339                                         !
 ! A210  A(100,99,101)         118.2842                                         !
 ! A211  A(99,101,102)         119.3906                                         !
 ! A212  A(99,101,130)         119.4397                                         !
 ! A213  A(102,101,130)        121.1697                                         !
 ! A214  A(101,102,103)        126.551                                          !
 ! A215  A(101,102,104)        114.7901                                         !
 ! A216  A(103,102,104)        118.6589                                         !
 ! A217  A(87,104,102)         127.8066                                         !
 ! A218  A(87,104,105)         106.5034                                         !
 ! A219  A(102,104,105)        125.69                                           !
 ! A220  A(104,105,106)        112.6942                                         !
 ! A221  A(104,105,107)        118.9135                                         !
 ! A222  A(106,105,107)        128.3923                                         !
 ! A223  A(86,106,105)         105.2159                                         !
 ! A224  A(105,107,108)        121.4382                                         !
 ! A225  A(105,107,130)        117.5515                                         !
 ! A226  A(108,107,130)        121.0102                                         !
 ! A227  A(107,108,109)        118.8251                                         !
 ! A228  A(107,108,110)        120.2508                                         !
 ! A229  A(109,108,110)        120.9241                                         !
 ! A230  A(108,110,111)        120.9229                                         !
 ! A231  A(108,110,112)        120.2713                                         !
 ! A232  A(111,110,112)        118.8057                                         !
 ! A233  A(110,112,113)        121.4555                                         !
 ! A234  A(110,112,129)        121.0123                                         !
 ! A235  A(113,112,129)        117.5322                                         !
 ! A236  A(112,113,114)        128.346                                          !
 ! A237  A(112,113,125)        118.9862                                         !
 ! A238  A(114,113,125)        112.6678                                         !
 ! A239  A(113,114,115)        104.9639                                         !
 ! A240  A(114,115,116)        129.0344                                         !
 ! A241  A(114,115,124)        111.383                                          !
 ! A242  A(116,115,124)        119.5826                                         !
 ! A243  A(115,116,117)        120.1924                                         !
 ! A244  A(115,116,118)        118.3954                                         !
 ! A245  A(117,116,118)        121.4122                                         !
 ! A246  A(116,118,119)        119.4682                                         !
 ! A247  A(116,118,120)        121.3065                                         !
 ! A248  A(119,118,120)        119.2253                                         !
 ! A249  A(118,120,121)        119.5202                                         !
 ! A250  A(118,120,122)        121.2559                                         !
 ! A251  A(121,120,122)        119.2239                                         !
 ! A252  A(120,122,123)        121.3848                                         !
 ! A253  A(120,122,124)        117.2375                                         !
 ! A254  A(123,122,124)        121.3777                                         !
 ! A255  A(115,124,122)        122.2221                                         !
 ! A256  A(115,124,125)        104.6582                                         !
 ! A257  A(122,124,125)        133.1197                                         !
 ! A258  A(113,125,124)        106.3271                                         !
 ! A259  A(113,125,126)        125.6135                                         !
 ! A260  A(124,125,126)        128.0594                                         !
 ! A261  A(125,126,127)        118.6782                                         !
 ! A262  A(125,126,128)        114.8392                                         !
 ! A263  A(127,126,128)        126.4826                                         !
 ! A264  A(97,128,126)         119.3855                                         !
 ! A265  A(97,128,129)         119.4114                                         !
 ! A266  A(126,128,129)        121.203                                          !
 ! A267  A(112,129,128)        121.8258                                         !
 ! A268  A(112,129,130)        118.7476                                         !
 ! A269  A(128,129,130)        119.4266                                         !
 ! A270  A(101,130,107)        121.885                                          !
 ! A271  A(101,130,129)        119.4074                                         !
 ! A272  A(107,130,129)        118.7077                                         !
 ! A273  A(132,131,133)        121.3065                                         !
 ! A274  A(132,131,204)        119.2253                                         !
 ! A275  A(133,131,204)        119.4682                                         !
 ! A276  A(131,132,134)        121.2559                                         !
 ! A277  A(131,132,203)        119.5202                                         !
 ! A278  A(134,132,203)        119.2239                                         !
 ! A279  A(131,133,135)        118.3954                                         !
 ! A280  A(131,133,151)        121.4122                                         !
 ! A281  A(135,133,151)        120.1924                                         !
 ! A282  A(132,134,136)        117.2375                                         !
 ! A283  A(132,134,155)        121.3848                                         !
 ! A284  A(136,134,155)        121.3777                                         !
 ! A285  A(133,135,136)        119.5826                                         !
 ! A286  A(133,135,138)        129.0344                                         !
 ! A287  A(136,135,138)        111.383                                          !
 ! A288  A(134,136,135)        122.2221                                         !
 ! A289  A(134,136,140)        133.1197                                         !
 ! A290  A(135,136,140)        104.6582                                         !
 ! A291  A(138,137,140)        112.6678                                         !
 ! A292  A(138,137,141)        128.346                                          !
 ! A293  A(140,137,141)        118.9862                                         !
 ! A294  A(135,138,137)        104.9639                                         !
 ! A295  A(140,139,143)        118.6781                                         !
 ! A296  A(140,139,144)        114.8392                                         !
 ! A297  A(143,139,144)        126.4826                                         !
 ! A298  A(136,140,137)        106.3271                                         !
 ! A299  A(136,140,139)        128.0594                                         !
 ! A300  A(137,140,139)        125.6135                                         !
 ! A301  A(137,141,142)        121.4555                                         !
 ! A302  A(137,141,145)        117.5322                                         !
 ! A303  A(142,141,145)        121.0123                                         !
 ! A304  A(141,142,146)        120.2713                                         !
 ! A305  A(141,142,171)        118.8057                                         !
 ! A306  A(146,142,171)        120.9229                                         !
 ! A307  A(139,144,145)        121.203                                          !
 ! A308  A(139,144,147)        119.3855                                         !
 ! A309  A(145,144,147)        119.4114                                         !
 ! A310  A(141,145,144)        121.8258                                         !
 ! A311  A(141,145,148)        118.7476                                         !
 ! A312  A(144,145,148)        119.4266                                         !
 ! A313  A(142,146,149)        120.2508                                         !
 ! A314  A(142,146,183)        120.9241                                         !
 ! A315  A(149,146,183)        118.8251                                         !
 ! A316  A(144,147,150)        121.1809                                         !
 ! A317  A(144,147,180)        118.1844                                         !
 ! A318  A(150,147,180)        120.6346                                         !
 ! A319  A(145,148,149)        118.7077                                         !
 ! A320  A(145,148,152)        119.4074                                         !
 ! A321  A(149,148,152)        121.885                                          !
 ! A322  A(146,149,148)        121.0102                                         !
 ! A323  A(146,149,153)        121.4382                                         !
 ! A324  A(148,149,153)        117.5515                                         !
 ! A325  A(147,150,152)        121.1339                                         !
 ! A326  A(147,150,187)        120.5819                                         !
 ! A327  A(152,150,187)        118.2842                                         !
 ! A328  A(148,152,150)        119.4397                                         !
 ! A329  A(148,152,154)        121.1697                                         !
 ! A330  A(150,152,154)        119.3906                                         !
 ! A331  A(149,153,159)        118.9135                                         !
 ! A332  A(149,153,165)        128.3923                                         !
 ! A333  A(159,153,165)        112.6942                                         !
 ! A334  A(152,154,159)        114.7901                                         !
 ! A335  A(152,154,163)        126.551                                          !
 ! A336  A(159,154,163)        118.6589                                         !
 ! A337  A(158,156,159)        131.6009                                         !
 ! A338  A(158,156,160)        123.8394                                         !
 ! A339  A(159,156,160)        104.5595                                         !
 ! A340  A(162,157,166)        120.3313                                         !
 ! A341  A(162,157,188)        120.0037                                         !
 ! A342  A(166,157,188)        119.665                                          !
 ! A343  A(156,158,167)        113.933                                          !
 ! A344  A(156,158,189)        122.7814                                         !
 ! A345  A(167,158,189)        123.2855                                         !
 ! A346  A(153,159,154)        125.69                                           !
 ! A347  A(153,159,156)        106.5034                                         !
 ! A348  A(154,159,156)        127.8066                                         !
 ! A349  A(156,160,165)        111.027                                          !
 ! A350  A(156,160,168)        120.61                                           !
 ! A351  A(165,160,168)        128.3629                                         !
 ! A352  A(164,161,166)        123.58                                           !
 ! A353  A(164,161,174)        121.4342                                         !
 ! A354  A(166,161,174)        114.9857                                         !
 ! A355  A(157,162,170)        120.3594                                         !
 ! A356  A(157,162,190)        119.9648                                         !
 ! A357  A(170,162,190)        119.6758                                         !
 ! A358  A(153,165,160)        105.2159                                         !
 ! A359  A(157,166,161)        118.7424                                         !
 ! A360  A(157,166,172)        120.522                                          !
 ! A361  A(161,166,172)        120.7356                                         !
 ! A362  A(158,167,169)        123.7065                                         !
 ! A363  A(158,167,174)        131.7899                                         !
 ! A364  A(169,167,174)        104.5034                                         !
 ! A365  A(160,168,169)        116.3288                                         !
 ! A366  A(160,168,192)        121.8508                                         !
 ! A367  A(169,168,192)        121.8203                                         !
 ! A368  A(167,169,168)        121.5822                                         !
 ! A369  A(167,169,179)        110.337                                          !
 ! A370  A(168,169,179)        128.0805                                         !
 ! A371  A(162,170,175)        118.7226                                         !
 ! A372  A(162,170,176)        120.5316                                         !
 ! A373  A(175,170,176)        120.7457                                         !
 ! A374  A(166,172,176)        119.16                                           !
 ! A375  A(166,172,178)        121.5309                                         !
 ! A376  A(176,172,178)        119.309                                          !
 ! A377  A(174,173,178)        119.3068                                         !
 ! A378  A(174,173,179)        113.1263                                         !
 ! A379  A(178,173,179)        127.5666                                         !
 ! A380  A(161,174,167)        128.0264                                         !
 ! A381  A(161,174,173)        125.7202                                         !
 ! A382  A(167,174,173)        106.2507                                         !
 ! A383  A(170,175,177)        123.7897                                         !
 ! A384  A(170,175,186)        114.9121                                         !
 ! A385  A(177,175,186)        121.2982                                         !
 ! A386  A(170,176,172)        119.0957                                         !
 ! A387  A(170,176,181)        121.6141                                         !
 ! A388  A(172,176,181)        119.2902                                         !
 ! A389  A(172,178,173)        117.7202                                         !
 ! A390  A(172,178,182)        120.2031                                         !
 ! A391  A(173,178,182)        122.0765                                         !
 ! A392  A(169,179,173)        105.7824                                         !
 ! A393  A(176,181,184)        117.7192                                         !
 ! A394  A(176,181,185)        120.2126                                         !
 ! A395  A(184,181,185)        122.0679                                         !
 ! A396  A(178,182,185)        120.4903                                         !
 ! A397  A(178,182,193)        119.8102                                         !
 ! A398  A(185,182,193)        119.6994                                         !
 ! A399  A(181,184,186)        119.2454                                         !
 ! A400  A(181,184,191)        127.6447                                         !
 ! A401  A(186,184,191)        113.1096                                         !
 ! A402  A(181,185,182)        120.4946                                         !
 ! A403  A(181,185,194)        119.8122                                         !
 ! A404  A(182,185,194)        119.6932                                         !
 ! A405  A(175,186,184)        125.7625                                         !
 ! A406  A(175,186,198)        127.9245                                         !
 ! A407  A(184,186,198)        106.3119                                         !
 ! A408  A(184,191,199)        105.7151                                         !
 ! A409  A(8,195,196)          104.5224                                         !
 ! A410  A(8,195,197)          131.5409                                         !
 ! A411  A(196,195,197)        123.9363                                         !
 ! A412  A(10,196,195)         110.6899                                         !
 ! A413  A(10,196,200)         128.2533                                         !
 ! A414  A(195,196,200)        121.0568                                         !
 ! A415  A(195,197,198)        113.5862                                         !
 ! A416  A(195,197,201)        123.0692                                         !
 ! A417  A(198,197,201)        123.3446                                         !
 ! A418  A(186,198,197)        131.6334                                         !
 ! A419  A(186,198,199)        104.4599                                         !
 ! A420  A(197,198,199)        123.9067                                         !
 ! A421  A(191,199,198)        110.4034                                         !
 ! A422  A(191,199,200)        128.1032                                         !
 ! A423  A(198,199,200)        121.4931                                         !
 ! A424  A(196,200,199)        116.0202                                         !
 ! A425  A(196,200,202)        122.0083                                         !
 ! A426  A(199,200,202)        121.9714                                         !
 ! D1    D(2,1,3,4)             -0.0286                                         !
 ! D2    D(2,1,3,5)            179.9532                                         !
 ! D3    D(30,1,3,4)          -179.9615                                         !
 ! D4    D(30,1,3,5)             0.0202                                         !
 ! D5    D(2,1,30,28)            0.0223                                         !
 ! D6    D(2,1,30,31)         -179.9395                                         !
 ! D7    D(3,1,30,28)          179.9562                                         !
 ! D8    D(3,1,30,31)           -0.0056                                         !
 ! D9    D(1,3,5,6)           -179.8647                                         !
 ! D10   D(1,3,5,32)             0.0082                                         !
 ! D11   D(4,3,5,6)              0.1173                                         !
 ! D12   D(4,3,5,32)           179.9903                                         !
 ! D13   D(3,5,6,7)             -0.0912                                         !
 ! D14   D(3,5,6,8)            179.9196                                         !
 ! D15   D(32,5,6,7)          -179.9627                                         !
 ! D16   D(32,5,6,8)             0.0481                                         !
 ! D17   D(3,5,32,11)          179.9061                                         !
 ! D18   D(3,5,32,31)           -0.0506                                         !
 ! D19   D(6,5,32,11)           -0.2233                                         !
 ! D20   D(6,5,32,31)          179.82                                           !
 ! D21   D(5,6,8,9)              0.3367                                         !
 ! D22   D(5,6,8,195)          179.9749                                         !
 ! D23   D(7,6,8,9)           -179.6531                                         !
 ! D24   D(7,6,8,195)           -0.0149                                         !
 ! D25   D(6,8,9,10)           179.5569                                         !
 ! D26   D(6,8,9,11)            -0.5327                                         !
 ! D27   D(195,8,9,10)          -0.1451                                         !
 ! D28   D(195,8,9,11)         179.7653                                         !
 ! D29   D(6,8,195,196)       -179.5404                                         !
 ! D30   D(6,8,195,197)          0.6772                                         !
 ! D31   D(9,8,195,196)          0.1533                                         !
 ! D32   D(9,8,195,197)       -179.6291                                         !
 ! D33   D(8,9,10,196)           0.0671                                         !
 ! D34   D(11,9,10,196)       -179.8333                                         !
 ! D35   D(8,9,11,12)         -179.618                                          !
 ! D36   D(8,9,11,32)            0.3206                                         !
 ! D37   D(10,9,11,12)           0.2772                                         !
 ! D38   D(10,9,11,32)        -179.7842                                         !
 ! D39   D(9,10,196,195)         0.0365                                         !
 ! D40   D(9,10,196,200)       179.9777                                         !
 ! D41   D(9,11,12,13)          -0.0756                                         !
 ! D42   D(9,11,12,14)         179.9017                                         !
 ! D43   D(32,11,12,13)        179.9876                                         !
 ! D44   D(32,11,12,14)         -0.0351                                         !
 ! D45   D(9,11,32,5)            0.0344                                         !
 ! D46   D(9,11,32,31)         179.9912                                         !
 ! D47   D(12,11,32,5)         179.9736                                         !
 ! D48   D(12,11,32,31)         -0.0696                                         !
 ! D49   D(11,12,14,15)       -179.9564                                         !
 ! D50   D(11,12,14,16)          0.0554                                         !
 ! D51   D(13,12,14,15)          0.0207                                         !
 ! D52   D(13,12,14,16)       -179.9675                                         !
 ! D53   D(12,14,16,17)        179.9126                                         !
 ! D54   D(12,14,16,31)          0.0305                                         !
 ! D55   D(15,14,16,17)         -0.0757                                         !
 ! D56   D(15,14,16,31)       -179.9578                                         !
 ! D57   D(14,16,17,18)          0.0101                                         !
 ! D58   D(14,16,17,27)       -179.8951                                         !
 ! D59   D(31,16,17,18)        179.8956                                         !
 ! D60   D(31,16,17,27)         -0.0096                                         !
 ! D61   D(14,16,31,30)        179.9123                                         !
 ! D62   D(14,16,31,32)         -0.1343                                         !
 ! D63   D(17,16,31,30)          0.0255                                         !
 ! D64   D(17,16,31,32)        179.9789                                         !
 ! D65   D(16,17,18,19)       -179.8692                                         !
 ! D66   D(27,17,18,19)          0.0408                                         !
 ! D67   D(16,17,27,26)        179.8706                                         !
 ! D68   D(16,17,27,28)          0.0138                                         !
 ! D69   D(18,17,27,26)         -0.0484                                         !
 ! D70   D(18,17,27,28)       -179.9051                                         !
 ! D71   D(17,18,19,20)        179.9083                                         !
 ! D72   D(17,18,19,26)         -0.0179                                         !
 ! D73   D(18,19,20,21)          0.0566                                         !
 ! D74   D(18,19,20,22)       -179.9241                                         !
 ! D75   D(26,19,20,21)        179.9758                                         !
 ! D76   D(26,19,20,22)         -0.0048                                         !
 ! D77   D(18,19,26,24)        179.9301                                         !
 ! D78   D(18,19,26,27)         -0.0105                                         !
 ! D79   D(20,19,26,24)         -0.0022                                         !
 ! D80   D(20,19,26,27)       -179.9428                                         !
 ! D81   D(19,20,22,23)          0.0048                                         !
 ! D82   D(19,20,22,42)        179.924                                          !
 ! D83   D(21,20,22,23)       -179.9759                                         !
 ! D84   D(21,20,22,42)         -0.0566                                         !
 ! D85   D(20,22,23,24)          0.0022                                         !
 ! D86   D(20,22,23,40)        179.9429                                         !
 ! D87   D(42,22,23,24)       -179.93                                           !
 ! D88   D(42,22,23,40)          0.0106                                         !
 ! D89   D(20,22,42,41)       -179.9083                                         !
 ! D90   D(23,22,42,41)          0.0178                                         !
 ! D91   D(22,23,24,25)        179.8607                                         !
 ! D92   D(22,23,24,26)         -0.0087                                         !
 ! D93   D(40,23,24,25)         -0.0625                                         !
 ! D94   D(40,23,24,26)       -179.9319                                         !
 ! D95   D(22,23,40,38)       -179.886                                          !
 ! D96   D(22,23,40,41)         -0.0333                                         !
 ! D97   D(24,23,40,38)          0.048                                          !
 ! D98   D(24,23,40,41)        179.9008                                         !
 ! D99   D(23,24,26,19)          0.0087                                         !
 ! D100  D(23,24,26,27)        179.9318                                         !
 ! D101  D(25,24,26,19)       -179.8607                                         !
 ! D102  D(25,24,26,27)          0.0624                                         !
 ! D103  D(19,26,27,17)          0.0332                                         !
 ! D104  D(19,26,27,28)        179.8859                                         !
 ! D105  D(24,26,27,17)       -179.9008                                         !
 ! D106  D(24,26,27,28)         -0.0481                                         !
 ! D107  D(17,27,28,29)        179.9657                                         !
 ! D108  D(17,27,28,30)         -0.0307                                         !
 ! D109  D(26,27,28,29)          0.1397                                         !
[...]
   130  C    0.148424  -0.000026
   131  C   -0.154058  -0.000001
   132  C   -0.183838   0.000001
   133  C   -0.154212   0.000002
   134  C   -0.107492  -0.000000
   135  C   -0.026030  -0.000002
   136  C    0.205965   0.000000
   137  C    0.510967  -0.000006
   138  N   -0.447332   0.000005
   139  C    0.485059  -0.000010
   140  N   -0.559127   0.000004
   141  C   -0.326698   0.000021
   142  C   -0.107527  -0.000018
   143  O   -0.549333  -0.000008
   144  C   -0.332797   0.000001
   145  C    0.144832  -0.000011
   146  C   -0.106186   0.000020
   147  C   -0.140203  -0.000022
   148  C    0.148424   0.000026
   149  C   -0.332411  -0.000020
   150  C   -0.140072   0.000016
   151  H    0.127445  -0.000000
   152  C   -0.332633  -0.000038
   153  C    0.516478   0.000023
   154  C    0.490184   0.000021
   155  H    0.134434   0.000000
   156  C    0.202535   0.000305
   157  C   -0.032355  -0.000953
   158  C   -0.033939  -0.000223
   159  N   -0.567617  -0.000015
   160  C   -0.024756  -0.000136
   161  C    0.618308  -0.000065
   162  C   -0.029534   0.000990
   163  O   -0.545832   0.000015
   164  O   -0.399578   0.000256
   165  N   -0.451860   0.000007
   166  C   -0.278267   0.000944
   167  C    0.221066   0.000298
   168  C   -0.123738   0.000373
   169  C   -0.034990  -0.000282
   170  C   -0.281131  -0.000888
   171  H    0.105963   0.000001
   172  C    0.167813  -0.001046
   173  C    0.566635  -0.000854
   174  N   -0.611758  -0.000024
   175  C    0.622232  -0.000883
   176  C    0.171274   0.000902
   177  O   -0.395228  -0.001749
   178  C   -0.261126   0.002769
   179  N   -0.397105   0.001068
   180  H    0.103305   0.000001
   181  C   -0.264889  -0.002991
   182  C   -0.023893  -0.001944
   183  H    0.106123  -0.000001
   184  C    0.572432   0.006159
   185  C   -0.021378   0.003192
   186  N   -0.615991   0.000269
   187  H    0.103525  -0.000001
   188  H    0.148317   0.000044
   189  H    0.141789   0.000008
   190  H    0.148571  -0.000043
   191  N   -0.396792  -0.005450
   192  H    0.128241  -0.000018
   193  H    0.139802   0.000081
   194  H    0.140460  -0.000137
   195  C    0.222719  -0.023754
   196  C   -0.030220   0.019370
   197  C   -0.016544   0.019321
   198  C    0.231535  -0.021987
   199  C   -0.035401   0.014218
   200  C   -0.097443  -0.029343
   201  H    0.151280  -0.000514
   202  H    0.136488   0.001445
   203  H    0.138278  -0.000000
   204  H    0.138217   0.000000
 Sum of Mulliken charges =  -6.00000  -0.00000
 Mulliken charges and spin densities with hydrogens summed into heavy atoms:
               1          2
     1  C    0.038360  -0.065992
     3  C    0.037978  -0.078132
     5  C   -0.309522  -0.138704
     6  C    0.555916  -0.045311
     7  O   -0.464576  -0.096795
     8  N   -0.593636   0.023212
     9  C    0.546442   0.005913
    10  N   -0.423193  -0.070811
    11  C   -0.298108  -0.078104
    12  C    0.058532  -0.055222
    14  C    0.057393  -0.046581
    16  C   -0.296038  -0.086269
    17  C    0.543034   0.007281
    18  N   -0.424182  -0.071134
    19  C   -0.030444   0.006610
    20  C    0.010331  -0.000000
    22  C   -0.030444  -0.006610
    23  C    0.215281   0.001971
    24  C    0.110181  -0.000000
    26  C    0.215281  -0.001971
    27  N   -0.591920   0.022775
    28  C    0.555685  -0.040487
    29  O   -0.465334  -0.093889
    30  C   -0.309210  -0.149928
    31  C    0.157858   0.052540
    32  C    0.160050   0.048351
    33  C    0.037978   0.078132
    35  C    0.038360   0.065992
    37  C   -0.309210   0.149928
    38  C    0.555685   0.040487
    39  O   -0.465334   0.093889
    40  N   -0.591920  -0.022775
    41  C    0.543034  -0.007281
    42  N   -0.424182   0.071134
    43  C   -0.296038   0.086269
    44  C    0.057393   0.046581
    46  C    0.058532   0.055222
    48  C   -0.298108   0.078104
    49  C    0.546442  -0.005913
    50  N   -0.423193   0.070811
    51  C   -0.030220  -0.019370
    52  C    0.039044   0.027898
    54  C   -0.035401  -0.014218
    55  C    0.231535   0.021987
    56  C    0.134735  -0.018807
    58  C    0.222719   0.023754
    59  N   -0.593636  -0.023212
    60  C    0.555916   0.045311
    61  O   -0.464576   0.096795
    62  C   -0.309522   0.138704
    63  C    0.160050  -0.048351
    64  C    0.157858  -0.052540
    65  C    0.115962   0.000910
    67  C    0.119036  -0.000947
    69  C   -0.281131   0.000888
    70  C    0.622232   0.000883
    71  O   -0.395228   0.001749
    72  N   -0.615991  -0.000269
    73  C    0.572432  -0.006159
    74  N   -0.396792   0.005450
    75  C   -0.264889   0.002991
    76  C    0.119083  -0.003054
    78  C    0.115909   0.001864
    80  C   -0.261126  -0.002769
    81  C    0.566635   0.000854
    82  N   -0.397105  -0.001068
    83  C   -0.034990   0.000282
    84  C    0.004503  -0.000355
    86  C   -0.024756   0.000136
    87  C    0.202535  -0.000305
    88  C    0.107850   0.000215
    90  C    0.221066  -0.000298
    91  N   -0.611758   0.000024
    92  C    0.618308   0.000065
    93  O   -0.399578  -0.000256
    94  C   -0.278267  -0.000944
    95  C    0.167813   0.001046
    96  C    0.171274  -0.000902
    97  C   -0.036898   0.000020
    99  C   -0.036547  -0.000015
   101  C   -0.332633   0.000038
   102  C    0.490183  -0.000021
   103  O   -0.545832  -0.000015
   104  N   -0.567617   0.000015
   105  C    0.516478  -0.000023
   106  N   -0.451860  -0.000007
   107  C   -0.332411   0.000020
   108  C   -0.000063  -0.000019
   110  C   -0.001564   0.000017
   112  C   -0.326698  -0.000021
   113  C    0.510967   0.000006
   114  N   -0.447332  -0.000005
   115  C   -0.026030   0.000002
   116  C   -0.026767  -0.000002
   118  C   -0.015841   0.000001
   120  C   -0.045560  -0.000001
   122  C    0.026942   0.000000
   124  C    0.205964  -0.000000
   125  N   -0.559127  -0.000004
   126  C    0.485059   0.000010
   127  O   -0.549332   0.000008
   128  C   -0.332797  -0.000001
   129  C    0.144832   0.000011
   130  C    0.148424  -0.000026
   131  C   -0.015841  -0.000001
   132  C   -0.045560   0.000001
   133  C   -0.026767   0.000002
   134  C    0.026942  -0.000000
   135  C   -0.026030  -0.000002
   136  C    0.205965   0.000000
   137  C    0.510967  -0.000006
   138  N   -0.447332   0.000005
   139  C    0.485059  -0.000010
   140  N   -0.559127   0.000004
   141  C   -0.326698   0.000021
   142  C   -0.001564  -0.000017
   143  O   -0.549333  -0.000008
   144  C   -0.332797   0.000001
   145  C    0.144832  -0.000011
   146  C   -0.000063   0.000019
   147  C   -0.036898  -0.000020
   148  C    0.148424   0.000026
   149  C   -0.332411  -0.000020
   150  C   -0.036547   0.000015
   152  C   -0.332633  -0.000038
   153  C    0.516478   0.000023
   154  C    0.490184   0.000021
   156  C    0.202535   0.000305
   157  C    0.115962  -0.000910
   158  C    0.107850  -0.000215
   159  N   -0.567617  -0.000015
   160  C   -0.024756  -0.000136
   161  C    0.618308  -0.000065
   162  C    0.119036   0.000947
   163  O   -0.545832   0.000015
   164  O   -0.399578   0.000256
   165  N   -0.451860   0.000007
   166  C   -0.278267   0.000944
   167  C    0.221066   0.000298
   168  C    0.004503   0.000355
   169  C   -0.034990  -0.000282
   170  C   -0.281131  -0.000888
   172  C    0.167813  -0.001046
   173  C    0.566635  -0.000854
   174  N   -0.611758  -0.000024
   175  C    0.622232  -0.000883
   176  C    0.171274   0.000902
   177  O   -0.395228  -0.001749
   178  C   -0.261126   0.002769
   179  N   -0.397105   0.001068
   181  C   -0.264889  -0.002991
   182  C    0.115909  -0.001864
   184  C    0.572432   0.006159
   185  C    0.119082   0.003054
   186  N   -0.615991   0.000269
   191  N   -0.396792  -0.005450
   195  C    0.222719  -0.023754
   196  C   -0.030220   0.019370
   197  C    0.134735   0.018807
   198  C    0.231535  -0.021987
   199  C   -0.035401   0.014218
   200  C    0.039044  -0.027898
 Electronic spatial extent (au):  <R**2>=        1763854.7964
 Charge=             -6.0000 electrons
 Dipole moment (field-independent basis, Debye):
    X=             -0.0000    Y=            -39.3321    Z=             -0.0598  Tot=             39.3321
 Quadrupole moment (field-independent basis, Debye-Ang):
   XX=         -17907.8348   YY=          -1285.1107   ZZ=           -935.9325
   XY=              0.0005   XZ=              0.0161   YZ=              2.3505
 Traceless Quadrupole moment (field-independent basis, Debye-Ang):
   XX=         -11198.2088   YY=           5424.5153   ZZ=           5773.6935
   XY=              0.0005   XZ=              0.0161   YZ=              2.3505
 Octapole moment (field-independent basis, Debye-Ang**2):
  XXX=             -0.0532  YYY=           -969.8523  ZZZ=            -11.8519  XYY=              0.0060
  XXY=         -50893.0070  XXZ=           -755.6008  XZZ=              0.0009  YZZ=              5.5195
  YYZ=             -1.7391  XYZ=              0.0948
 Hexadecapole moment (field-independent basis, Debye-Ang**3):
 XXXX=      -17485516.7572 YYYY=         -53753.4579 ZZZZ=          -1048.3994 XXXY=              0.3505
 XXXZ=             17.9028 YYYX=              0.0398 YYYZ=            -12.5835 ZZZX=              0.0522
 ZZZY=            -13.8432 XXYY=        -682363.0937 XXZZ=        -432376.8329 YYZZ=          -8031.7807
 XXYZ=           -286.5348 YYXZ=              0.4162 ZZXY=              0.0017
 N-N= 2.613883845696D+04 E-N=-6.895761512172D+04  KE= 7.019648014861D+03
 Leave Link  601 at Tue Feb  6 08:52:28 2024, MaxMem= 17179869184 cpu:              76.2 elap:               5.1
 (Enter /apps/gaussian/g16-c01-avx2/g16/l9999.exe)
 Unable to Open any file for archive entry.
 1\1\GINC-CX3-14-11\Stability\UwB97XD\6-311G(d,p)\C126H42N24O12(6-)\NS5
 018\06-Feb-2024\0\\#p scrf=(smd,solvent=water) uwB97XD/6-311(d,p) Geom
 =AllCheck guess=read stable\\050\\-6,1\C,0,6.6528035912,-1.4313678971,
 0.1737162379\H,0,7.1575935814,-0.4744173533,0.2188582741\C,0,5.2821653
 714,-1.4919485258,0.1817362712\H,0,4.695410169,-0.5833297165,0.2337277
 64\C,0,4.6131790382,-2.7313316055,0.1224045377\C,0,3.1705689088,-2.751
 3744216,0.1301513837\O,0,2.4434942727,-1.7592961525,0.1869205593\N,0,2
 .5982308088,-4.0298738049,0.0664435976\C,0,3.2988012595,-5.2325468978,
 0.0056130135\N,0,2.512457931,-6.2803909309,-0.0370229298\C,0,4.7339610
 766,-5.2020733429,-0.0055917213\C,0,5.4962699132,-6.3775812172,-0.0736
 912231\H,0,4.9922439794,-7.3346250567,-0.1178609838\C,0,6.8715787529,-
 6.3156418853,-0.0847628453\H,0,7.4589537224,-7.2234614596,-0.138053361
 9\C,0,7.5263441833,-5.0768385211,-0.0269258559\C,0,8.9596460596,-4.978
 8926884,-0.0348551514\N,0,9.8345811542,-5.9518385627,-0.0930342012\C,0
 ,11.0750594073,-5.3340488857,-0.0693134825\C,0,12.3327023459,-5.925228
 5405,-0.1082587883\H,0,12.4576125307,-6.9993812854,-0.1655748237\C,0,1
 3.4211279396,-5.0612407163,-0.0691353704\C,0,13.2395723423,-3.65979416
 63,0.006265327\C,0,11.9975576031,-3.0431852824,0.0466118424\H,0,11.873
 494211,-1.9763159221,0.1061188625\C,0,10.9301784879,-3.9283377246,0.00
 60907132\N,0,9.5504799775,-3.7187655548,0.0268916\C,0,8.8680780625,-2.
 4988442799,0.0984514888\O,0,9.5021284956,-1.4445125924,0.1494425544\C,
 0,7.4277827075,-2.606185935,0.1055464062\C,0,6.7879383576,-3.875257850
 9,0.0441060838\C,0,5.362474159,-3.9389003363,0.0533377453\C,0,18.17779
 21632,0.0075964291,0.1826948199\H,0,18.540388433,1.0266091043,0.234752
 8398\C,0,16.8298265116,-0.2479509576,0.1744730035\H,0,16.1189137458,0.
 5676339933,0.2195207806\C,0,16.3451140536,-1.5692502262,0.1062140164\C
 ,0,14.9186198139,-1.7952680545,0.0989049966\O,0,14.0595492638,-0.91456
 10384,0.1497802038\N,0,14.5343644269,-3.1392237732,0.0272672936\C,0,15
 .3985957174,-4.2301514642,-0.0343673381\N,0,14.7702705722,-5.377901236
 3,-0.0926587258\C,0,16.8161269653,-3.99659342,-0.0262226473\C,0,17.737
 6903102,-5.0520964733,-0.0839372849\H,0,17.3743076123,-6.0704733454,-0
 .1372961725\C,0,19.0905132818,-4.796799945,-0.0726609954\H,0,19.800703
 6779,-5.6126509989,-0.1167368374\C,0,19.5627352312,-3.4777366305,-0.00
 44739391\C,0,20.966591909,-3.1780801833,0.0069412991\N,0,21.9724018175
 ,-4.017527092,-0.0355568095\C,0,23.1091378476,-3.2299000861,-0.0040015
 542\C,0,24.4393109968,-3.6361014274,-0.0283655093\H,0,24.7195042636,-4
 .6807087985,-0.0755781752\C,0,25.3854631832,-2.6231307306,0.009328075\
 C,0,25.0086813369,-1.2638377632,0.0676496079\C,0,23.6947988514,-0.8268
 717895,0.0963540041\H,0,23.4178112631,0.2119119332,0.1414676447\C,0,22
 .7654582589,-1.8578934033,0.0594144177\N,0,21.3724904522,-1.846742991,
 0.0678472853\C,0,20.5220454299,-0.7336891492,0.1314449077\O,0,21.00206
 54563,0.3987543496,0.188296012\C,0,19.1133301958,-1.0452076602,0.12348
 72815\C,0,18.6611316487,-2.392490229,0.0543365416\C,0,17.2591005167,-2
 .6576379685,0.0448940798\C,0,29.4435420383,3.0328743854,0.1566037414\H
 ,0,29.6580969724,4.0933806769,0.1862731685\C,0,28.1137746043,2.5857121
 992,0.1621892809\H,0,27.3026994409,3.3017901939,0.1963928392\C,0,27.83
 29719446,1.240829393,0.1241545233\C,0,26.413891744,0.8083824477,0.1295
 721827\O,0,25.4748769546,1.5756009879,0.1685545175\N,0,26.2211355946,-
 0.5656029037,0.0844602781\C,0,27.2301680917,-1.5304111204,0.0377043454
 \N,0,26.7734949301,-2.7421837821,-0.005956052\C,0,28.6181324148,-1.105
 5629403,0.0383891096\C,0,29.6590736103,-2.0071073257,-0.0036615537\H,0
 ,29.4505783219,-3.0686197458,-0.0346630112\C,0,30.9863423516,-1.560423
 6144,-0.0079273892\H,0,31.7941757691,-2.2799247183,-0.0422814578\C,0,3
 1.2704989336,-0.2129263072,0.0292833444\C,0,32.63278165,0.2881035648,0
 .0209166445\N,0,33.727918488,-0.4022357645,-0.0259401303\C,0,34.764902
 3909,0.5305170903,-0.019591106\C,0,36.129588107,0.291994206,-0.0641821
 292\H,0,36.5325398061,-0.7121400989,-0.1089010359\C,0,36.9549690899,1.
 4165256184,-0.0512743847\C,0,36.3977348851,2.7224910095,0.0075044105\C
 ,0,35.0329486805,2.9801651866,0.0534819286\H,0,34.6294694773,3.9763438
 492,0.0963345738\C,0,34.2452518156,1.8411343154,0.0366203394\N,0,32.85
 45706889,1.6665789768,0.0627461661\C,0,31.8728795074,2.6425306277,0.10
 77173705\O,0,32.1546906919,3.8232393959,0.1392656714\C,0,30.4790496713
 ,2.1303798057,0.1131018052\C,0,30.2187665809,0.7368215075,0.0745305242
 \C,0,28.8815231392,0.2868314621,0.0792416733\C,0,40.1153694011,7.61003
 42475,0.0540447899\H,0,40.1957287381,8.6902671167,0.0883254836\C,0,38.
 9076129514,7.0096911797,0.0733011887\H,0,37.9997423274,7.5990810587,0.
 1233682396\C,0,38.788021064,5.5716542048,0.0278404112\C,0,37.503338811
 4,4.9811350533,0.048547935\O,0,36.4070048232,5.5829319311,0.1031421875
 \N,0,37.4996212083,3.5737842119,0.0021519077\C,0,38.6282298518,2.75976
 94387,-0.0591787963\N,0,38.3264766847,1.4674357905,-0.0911554027\C,0,3
 9.909453028,3.3652881978,-0.0813735754\C,0,41.1033241966,2.5818752461,
 -0.1476470238\H,0,41.0185578214,1.5025448037,-0.180153834\C,0,42.31692
 69059,3.1865844276,-0.1696054084\H,0,43.2284763156,2.6036322835,-0.220
 2137363\C,0,42.4125846978,4.6120140192,-0.1252140896\C,0,43.6686548437
 ,5.2705868264,-0.1465637176\N,0,44.8807908216,4.7313559082,-0.20833235
 77\C,0,45.7447217126,5.7991293054,-0.2018009373\C,0,47.143644513,5.801
 595017,-0.2518167632\H,0,47.6890393356,4.8659839377,-0.3040746765\C,0,
 47.8010557797,7.0200795112,-0.2332199193\H,0,48.8847615615,7.042289693
 1,-0.2714324653\C,0,47.0927574624,8.230015479,-0.1651852975\H,0,47.636
 8971348,9.1674135291,-0.1516444777\C,0,45.7055028685,8.2507469274,-0.1
 142945953\H,0,45.1586811173,9.1800838856,-0.0601140648\C,0,45.04860668
 29,7.0230821189,-0.1341539089\N,0,43.7020016878,6.6617611915,-0.099223
 7288\C,0,42.5786820924,7.5064780024,-0.03154344\O,0,42.7595373893,8.74
 5072651,0.0055236229\C,0,41.3327567846,6.8376971793,-0.0126619654\C,0,
 41.2575203219,5.4150577551,-0.0586231944\C,0,39.9661218757,4.772554973
 8,-0.0370526128\C,0,-25.1597251841,-1.4640462121,-0.2380884863\C,0,-24
 .7479720808,-0.1238681651,-0.1699529991\C,0,-24.2402544294,-2.49916475
 32,-0.2566096567\C,0,-23.4024969981,0.214633803,-0.1188826704\C,0,-22.
 8780994527,-2.1805635188,-0.2064125644\C,0,-22.4814208918,-0.829538246
 8,-0.1386662191\C,0,-20.7361533703,-2.2186214699,-0.150909783\N,0,-21.
 7922039689,-3.0216039421,-0.2128393586\C,0,-20.1883361863,0.2077153356
 ,-0.0357332438\N,0,-21.0878413552,-0.8722213858,-0.1035646536\C,0,-19.
 362482514,-2.5713989393,-0.1294018575\C,0,-18.9422862316,-3.9368421947
 ,-0.1737900254\O,0,-20.6485838944,1.3717593911,0.0013177999\C,0,-18.82
 21967654,-0.1573255224,-0.0166954482\C,0,-18.4225169474,-1.5247389752,
 -0.0626562839\C,0,-17.6223095175,-4.2469380752,-0.1516784024\C,0,-17.8
 145250724,0.8737480322,0.050173653\C,0,-17.018147978,-1.8537686342,-0.
 0409229195\C,0,-16.6400680274,-3.2104802998,-0.0852455025\C,0,-16.5012
 401462,0.5665603612,0.0695821904\H,0,-24.5564005455,-3.5349577477,-0.3
 089450825\C,0,-16.0548553156,-0.8056618128,0.0241274233\C,0,-15.254089
 4282,-3.5058476851,-0.0628884967\C,0,-14.6689516091,-1.0856359866,0.04
 4996678\H,0,-23.0835225816,1.24464744,-0.0646241761\C,0,-13.0745649191
 ,-3.0303145333,0.0040830742\C,0,-6.3771712552,-1.1324781041,0.15408210
 65\C,0,-11.8053280561,-2.466347588,0.0502385729\N,0,-14.3423904824,-2.
 4545798626,-0.0014070667\C,0,-13.3172505181,-4.4292962765,-0.054775038
 1\C,0,-8.6521106217,-2.0698513673,0.1048805451\C,0,-4.980278825,-1.262
 574401,0.1598364085\O,0,-13.7399688638,-0.2483291421,0.0997374347\O,0,
 -9.1973369298,-0.9853141795,0.1363987596\N,0,-14.6638393335,-4.6944553
 139,-0.0948334854\C,0,-7.1779525558,-2.24850219,0.1104416701\C,0,-10.7
 77280104,-3.3942367393,0.0334727365\C,0,-12.2558515668,-5.3344258564,-
 0.0675817719\C,0,-10.9823177844,-4.7891221934,-0.0228127694\C,0,-4.398
 3612065,-2.5071361288,0.121829801\H,0,-19.6957397255,-4.7134057953,-0.
 2245200981\C,0,-6.6048376379,-3.5451491472,0.0718968954\C,0,-8.8514680
 924,-4.5358228713,0.0179692668\N,0,-9.3836554954,-3.2450234376,0.05977
 73977\C,0,-2.9179157028,-2.6024153758,0.1274193737\C,0,-5.2000196792,-
 3.6762823862,0.0767789699\O,0,-2.1800110964,-1.6402004758,0.1665598643
 \C,0,-7.4105676109,-4.7108885828,0.0265099755\N,0,-9.7589692552,-5.459
 0352655,-0.0290324575\H,0,-18.1406194807,1.9067162484,0.0844510545\C,0
 ,-4.6241468624,-4.9710835094,0.0359586732\C,0,-6.8247857579,-5.9572256
 144,-0.0106681012\H,0,-17.2921329582,-5.2780167532,-0.1841812142\C,0,-
 3.1757299181,-5.0661073311,0.0354632988\C,0,-5.430434991,-6.0874296723
 ,-0.0062293272\N,0,-2.4150164831,-3.8955073188,0.0823491222\H,0,-15.75
 2844442,1.3485458029,0.1197703204\H,0,-6.8293534824,-0.1495030466,0.18
 37292066\H,0,-11.6412077748,-1.4041672963,0.0931488355\H,0,-4.35516430
 22,-0.3794916459,0.1941464982\N,0,-2.4531778755,-6.1407551987,-0.00812
 69031\H,0,-12.417632629,-6.4042284118,-0.1123582399\H,0,-7.4459595444,
 -6.8428962625,-0.0451282882\H,0,-4.9839197229,-7.0727746351,-0.0372036
 164\C,0,1.2449911276,-4.3603622057,0.0578098993\C,0,1.225316809,-5.774
 6204509,-0.0056418239\C,0,0.1038605327,-3.57010205,0.0946051586\C,0,-1
 .0746918901,-4.2968964433,0.0657177275\C,0,-1.1295032699,-5.7063760389
 ,0.0073541477\C,0,0.0238484033,-6.4752091915,-0.0301945585\H,0,0.13508
 7584,-2.4954784344,0.1397486915\H,0,-0.0091621911,-7.5562366226,-0.077
 437058\H,0,-25.4926936858,0.6636561332,-0.1564752588\H,0,-26.219606192
 6,-1.691099177,-0.2764409369\\Version=ES64L-G16RevC.01\State=1-A\HF=-7
 044.1971733\S2=1.047394\S2-1=0.\S2A=0.388869\RMSD=3.317e-09\Dipole=1.7
 873625,-15.3707442,0.0652443\Quadrupole=-8160.7126745,3868.1055964,429
 2.6070782,-1417.9244952,-0.7223097,-1.1389946\PG=C01 [X(C126H42N24O12)
 ]\\@
 The archive entry for this job was punched.


 NEVER LOSE YOUR IGNORANCE, IT CAN'T BE REPLACED.
   -- ANDY CAPP
 Job cpu time:       4 days  9 hours 49 minutes 14.1 seconds.
 Elapsed time:       0 days  6 hours 42 minutes 31.0 seconds.
 File lengths (MBytes):  RWF=  63496 Int=      0 D2E=      0 Chk=   3312 Scr=     16
 Normal termination of Gaussian 16 at Tue Feb  6 08:52:30 2024.
