 Entering Gaussian System, Link 0=g16
 Input=step3.gjf
 Output=step3.log
 Initial command:
 /share/software/user/restricted/gaussian/g16.B01/l1.exe "/home/groups/asalleo/nsiemons/BBL/0001/042/Gau-28074.inp" -scrdir="/home/groups/asalleo/nsiemons/BBL/0001/042/"
 Entering Link 1 = /share/software/user/restricted/gaussian/g16.B01/l1.exe PID=     28075.
  
 Copyright (c) 1988-2017, Gaussian, Inc.  All Rights Reserved.
  
 This is part of the Gaussian(R) 16 program.  It is based on
 the Gaussian(R) 09 system (copyright 2009, Gaussian, Inc.),
 the Gaussian(R) 03 system (copyright 2003, Gaussian, Inc.),
 the Gaussian(R) 98 system (copyright 1998, Gaussian, Inc.),
 the Gaussian(R) 94 system (copyright 1995, Gaussian, Inc.),
 the Gaussian 92(TM) system (copyright 1992, Gaussian, Inc.),
 the Gaussian 90(TM) system (copyright 1990, Gaussian, Inc.),
 the Gaussian 88(TM) system (copyright 1988, Gaussian, Inc.),
 the Gaussian 86(TM) system (copyright 1986, Carnegie Mellon
 University), and the Gaussian 82(TM) system (copyright 1983,
 Carnegie Mellon University). Gaussian is a federally registered
 trademark of Gaussian, Inc.
  
 This software contains proprietary and confidential information,
 including trade secrets, belonging to Gaussian, Inc.
  
 This software is provided under written license and may be
 used, copied, transmitted, or stored only in accord with that
 written license.
  
 The following legend is applicable only to US Government
 contracts under FAR:
  
                    RESTRICTED RIGHTS LEGEND
  
 Use, reproduction and disclosure by the US Government is
 subject to restrictions as set forth in subparagraphs (a)
 and (c) of the Commercial Computer Software - Restricted
 Rights clause in FAR 52.227-19.
  
 Gaussian, Inc.
 340 Quinnipiac St., Bldg. 40, Wallingford CT 06492
  
  
 ---------------------------------------------------------------
 Warning -- This program may not be used in any manner that
 competes with the business of Gaussian, Inc. or will provide
 assistance to any competitor of Gaussian, Inc.  The licensee
 of this program is prohibited from giving any competitor of
 Gaussian, Inc. access to this program.  By using this program,
 the user acknowledges that Gaussian, Inc. is engaged in the
 business of creating and licensing software in the field of
 computational chemistry and represents and warrants to the
 licensee that it is not a competitor of Gaussian, Inc. and that
 it will not use this program in any manner prohibited above.
 ---------------------------------------------------------------
  

 Cite this work as:
 Gaussian 16, Revision B.01,
 M. J. Frisch, G. W. Trucks, H. B. Schlegel, G. E. Scuseria, 
 M. A. Robb, J. R. Cheeseman, G. Scalmani, V. Barone, 
 G. A. Petersson, H. Nakatsuji, X. Li, M. Caricato, A. V. Marenich, 
 J. Bloino, B. G. Janesko, R. Gomperts, B. Mennucci, H. P. Hratchian, 
 J. V. Ortiz, A. F. Izmaylov, J. L. Sonnenberg, D. Williams-Young, 
 F. Ding, F. Lipparini, F. Egidi, J. Goings, B. Peng, A. Petrone, 
 T. Henderson, D. Ranasinghe, V. G. Zakrzewski, J. Gao, N. Rega, 
 G. Zheng, W. Liang, M. Hada, M. Ehara, K. Toyota, R. Fukuda, 
 J. Hasegawa, M. Ishida, T. Nakajima, Y. Honda, O. Kitao, H. Nakai, 
 T. Vreven, K. Throssell, J. A. Montgomery, Jr., J. E. Peralta, 
 F. Ogliaro, M. J. Bearpark, J. J. Heyd, E. N. Brothers, K. N. Kudin, 
 V. N. Staroverov, T. A. Keith, R. Kobayashi, J. Normand, 
 K. Raghavachari, A. P. Rendell, J. C. Burant, S. S. Iyengar, 
 J. Tomasi, M. Cossi, J. M. Millam, M. Klene, C. Adamo, R. Cammi, 
 J. W. Ochterski, R. L. Martin, K. Morokuma, O. Farkas, 
 J. B. Foresman, and D. J. Fox, Gaussian, Inc., Wallingford CT, 2016.
 
 ******************************************
 Gaussian 16:  ES64L-G16RevB.01 20-Dec-2017
                30-Sep-2023 
 ******************************************
 %mem=200GB
 %nprocshared=16
 Will use up to   16 processors via shared memory.
 %Chk=checkpoint.chk
 -------------------------------------------------------------
 #p opt uwB97XD/6-311(d,p) Geom=AllCheck guess=read pop=chelpg
 -------------------------------------------------------------
 1/18=20,19=15,26=3,29=7,38=1/1,3;
 2/9=110,12=2,40=1/2;
 3/5=4,6=6,7=101,11=2,14=-4,25=1,30=1,71=1,74=-58,116=2/1,2,3;
 4/5=1/1;
 5/5=2,38=6/2;
 6/7=2,8=2,9=2,10=2,15=8,20=3,28=1/1,2;
 7//1,2,3,16;
 1/18=20,19=15,26=3/3(2);
 2/9=110/2;
 99//99;
 2/9=110/2;
 3/5=4,6=6,7=101,11=2,14=-2,25=1,30=1,71=1,74=-58,116=2/1,2,3;
 4/5=5,16=3,69=1/1;
 5/5=2,38=5/2;
 7//1,2,3,16;
 1/18=20,19=15,26=3/3(-5);
 2/9=110/2;
 6/7=2,8=2,9=2,10=2,15=8,19=2,20=3,28=1/1,2;
 99/9=1/99;
 Leave Link    1 at Sat Sep 30 13:04:10 2023, MaxMem= 26843545600 cpu:               0.9 elap:               0.1
 (Enter /share/software/user/restricted/gaussian/g16.B01/l101.exe)
 Structure from the checkpoint file:  "checkpoint.chk"
 -----
 01_42
 -----
 Charge = -2 Multiplicity = 3
 Redundant internal coordinates found in file.  (old form).
 C,0,17.3050197301,-2.2578906662,0.
 H,0,16.6158827624,-3.0929986142,0.
 C,0,18.6867654057,-2.4622679619,0.
 H,0,19.094884889,-3.4659461258,0.
 C,0,19.5652207327,-1.3963439068,0.
 C,0,21.0165783722,-1.6675919918,0.
 O,0,21.5134158568,-2.7690805602,0.
 N,0,21.8185708844,-0.5153336126,0.
 C,0,21.3614649317,0.8024270714,0.
 N,0,22.3190063684,1.678326357,0.
 C,0,19.9313577036,1.054622291,0.
 C,0,19.420029697,2.3341037393,0.
 H,0,20.1072066946,3.1713611919,0.
 C,0,18.0347026121,2.540053582,0.
 H,0,17.6199120596,3.5405095068,0.
 C,0,17.1679916089,1.4701520451,0.
 C,0,15.3727170738,-0.7142839118,0.
 N,0,14.41532791,-1.5890105464,0.
 C,0,13.2381258609,-0.8655070183,0.
 C,0,11.9313718708,-1.3562073857,0.
 H,0,11.7004822029,-2.4104282834,0.
 C,0,10.9529210402,-0.3842274687,0.
 C,0,11.2198976442,1.0178397592,0.
 C,0,12.5313649121,1.503263427,0.
 H,0,12.7516766006,2.5595293214,0.
 C,0,13.5075545579,0.5267774889,0.
 N,0,14.9068298539,0.6072126861,0.
 C,0,15.7000151022,1.7438389656,0.
 O,0,15.2369115151,2.8597297596,0.
 C,0,16.7928305986,-0.9741672058,0.
 C,0,17.6695140627,0.1449739411,0.
 C,0,19.0657109147,-0.068322794,0.
 C,0,5.1106221889,-2.3026750329,0.
 H,0,4.4260444905,-3.1419652353,0.
 C,0,6.4733096622,-2.4884926637,0.
 H,0,6.9050022952,-3.4817469351,0.
 C,0,7.3484750102,-1.3890832705,0.
 C,0,8.781824291,-1.6372085514,0.
 O,0,9.3189064115,-2.7326045019,0.
 N,0,9.5647235578,-0.4680533693,0.
 C,0,9.0893311724,0.8422001924,0.
 N,0,10.0584999535,1.7379996038,0.
 C,0,7.6824714937,1.0676170201,0.
 C,0,7.1404028921,2.3659710066,0.
 H,0,7.8220855448,3.2075242964,0.
 C,0,5.7786273108,2.5478084842,0.
 H,0,5.3450392199,3.5403616421,0.
 C,0,4.903509691,1.448292041,0.
 C,0,3.1577129408,-0.7805693792,0.
 N,0,2.199813375,-1.6754698824,0.
 C,0,1.0271692532,-0.9538487207,0.
 C,0,-0.2790022842,-1.4432810028,0.
 H,0,-0.4978085339,-2.4999045927,0.
 C,0,-1.2610065077,-0.4694007808,0.
 C,0,-0.9931119503,0.9207946101,0.
 C,0,0.3083893654,1.4140894757,0.
 H,0,0.5339118174,2.4693919947,0.
 C,0,1.2930166693,0.4426634197,0.
 N,0,2.6824609662,0.5295648717,0.
 C,0,3.4689584161,1.6968488892,0.
 O,0,2.9383940684,2.7939184279,0.
 C,0,4.5742184949,-1.0063415727,0.
 C,0,5.4203900302,0.1268853963,0.
 C,0,6.8346180073,-0.0685271052,0.
 C,0,-7.1685580024,-2.3045249121,0.
 H,0,-7.8527850203,-3.1439837439,0.
 C,0,-5.7821584925,-2.5031806435,0.
 H,0,-5.3663859847,-3.5035569703,0.
 C,0,-4.9145421718,-1.4331714011,0.
 C,0,-3.4513434664,-1.6983184724,0.
 O,0,-2.9703026302,-2.8069578653,0.
 N,0,-2.6589522981,-0.5530559076,0.
 C,0,-3.1269397493,0.7655343578,0.
 N,0,-2.1780000137,1.6451625763,0.
 C,0,-4.5566851602,1.0151413271,0.
 C,0,-5.074386968,2.2922374888,0.
 H,0,-4.3902505303,3.1318413672,0.
 C,0,-6.4612013922,2.4911605287,0.
 H,0,-6.8777476289,3.4911477191,0.
 C,0,-7.3273575296,1.4206290605,0.
 C,0,-9.1150310859,-0.7761836589,0.
 N,0,-10.0649434265,-1.6551044909,0.
 C,0,-11.2493944003,-0.9318170424,0.
 C,0,-12.5521025947,-1.4252138604,0.
 H,0,-12.7788375753,-2.4802936087,0.
 C,0,-13.5363925684,-0.4549083286,0.
 C,0,-13.2720375632,0.9437428663,0.
 C,0,-11.964461639,1.4323774789,0.
 H,0,-11.7459218959,2.4890484039,0.
 C,0,-10.9826260917,0.4586028444,0.
 N,0,-9.5840062104,0.5430450267,0.
 C,0,-8.7925399067,1.6863127919,0.
 O,0,-9.2692367044,2.7968507276,0.
 C,0,-7.6866975891,-1.0269620118,0.
 C,0,-6.8193914555,0.0969264181,0.
 C,0,-5.4224619573,-0.1092356763,0.
 C,0,-19.3784799504,-2.3845429776,0.
 H,0,-20.0610223427,-3.2255903032,0.
 C,0,-18.0162379514,-2.56692557,0.
 H,0,-17.5814199491,-3.5589458209,0.
 C,0,-17.142721004,-1.4655833789,0.
 C,0,-15.7086698584,-1.7115084391,0.
 O,0,-15.1737132785,-2.8080335013,0.
 N,0,-14.925506505,-0.5428739329,0.
 C,0,-15.4032303217,0.7674363348,0.
 N,0,-14.4415664429,1.6640730855,0.
 C,0,-16.8153009868,0.9899788143,0.
 C,0,-17.3576947609,2.2877510266,0.
 H,0,-16.675277141,3.1288550508,0.
 C,0,-18.718998648,2.4695428382,0.
 H,0,-19.1528663765,3.462006028,0.
 C,0,-19.5951765502,1.3685492194,0.
 C,0,-21.335542782,-0.8655657923,0.
 N,0,-22.2967687128,-1.7606790623,0.
 C,0,-23.4644038019,-1.0297775122,0.
 C,0,-24.787319672,-1.4772837145,0.
 H,0,-24.9972599207,-2.5404387342,0.
 C,0,-25.7988823382,-0.5311650566,0.
 H,0,-26.8341896199,-0.8564439993,0.
 C,0,-25.5138568302,0.8421578277,0.
 H,0,-26.3312259516,1.5551293168,0.
 C,0,-24.2070695552,1.3104891246,0.
 H,0,-23.9632892547,2.3629553468,0.
 C,0,-23.1993183611,0.3534666378,0.
 N,0,-21.8120060616,0.4451284385,0.
 C,0,-21.0265715082,1.6147886426,0.
 O,0,-21.563913525,2.7112023406,0.
 C,0,-19.9195626641,-1.0880116489,0.
 C,0,-19.0763001746,0.0469170808,0.
 C,0,-17.6605876409,-0.145510877,0.
 C,0,23.4904024759,0.9356999906,0.
 C,0,24.8111204117,1.3795185998,0.
 C,0,25.8136563835,0.4245871833,0.
 C,0,25.5149861618,-0.9455465092,0.
 C,0,24.2072572596,-1.4076690814,0.
 C,0,23.2100061835,-0.4398849089,0.
 H,0,25.0278281718,2.4405817941,0.
 H,0,26.8511909503,0.7389392131,0.
 H,0,26.3266318603,-1.6640531843,0.
 H,0,23.9632889429,-2.4598841736,0.
 Recover connectivity data from disk.
 ITRead=  0  0  0  0  0  0  0  0  0  0  0  0  0  0  0  0  0  0  0  0
 ITRead=  0  0  0  0  0  0  0  0  0  0  0  0  0  0  0  0  0  0  0  0
 ITRead=  0  0  0  0  0  0  0  0  0  0  0  0  0  0  0  0  0  0  0  0
 ITRead=  0  0  0  0  0  0  0  0  0  0  0  0  0  0  0  0  0  0  0  0
 ITRead=  0  0  0  0  0  0  0  0  0  0  0  0  0  0  0  0  0  0  0  0
 ITRead=  0  0  0  0  0  0  0  0  0  0  0  0  0  0  0  0  0  0  0  0
 ITRead=  0  0  0  0  0  0  0  0  0  0  0  0  0  0  0  0  0  0  0  0
 MicOpt= -1 -1 -1 -1 -1 -1 -1 -1 -1 -1 -1 -1 -1 -1 -1 -1 -1 -1 -1 -1
 MicOpt= -1 -1 -1 -1 -1 -1 -1 -1 -1 -1 -1 -1 -1 -1 -1 -1 -1 -1 -1 -1
 MicOpt= -1 -1 -1 -1 -1 -1 -1 -1 -1 -1 -1 -1 -1 -1 -1 -1 -1 -1 -1 -1
 MicOpt= -1 -1 -1 -1 -1 -1 -1 -1 -1 -1 -1 -1 -1 -1 -1 -1 -1 -1 -1 -1
 MicOpt= -1 -1 -1 -1 -1 -1 -1 -1 -1 -1 -1 -1 -1 -1 -1 -1 -1 -1 -1 -1
 MicOpt= -1 -1 -1 -1 -1 -1 -1 -1 -1 -1 -1 -1 -1 -1 -1 -1 -1 -1 -1 -1
 MicOpt= -1 -1 -1 -1 -1 -1 -1 -1 -1 -1 -1 -1 -1 -1 -1 -1 -1 -1 -1 -1
 NAtoms=    140 NQM=      140 NQMF=       0 NMMI=      0 NMMIF=      0
                NMic=       0 NMicF=      0.
                    Isotopes and Nuclear Properties:
 (Nuclear quadrupole moments (NQMom) in fm**2, nuclear magnetic moments (NMagM)
  in nuclear magnetons)

  Atom         1           2           3           4           5           6           7           8           9          10
 IAtWgt=          12           1          12           1          12          12          16          14          12          14
 AtmWgt=  12.0000000   1.0078250  12.0000000   1.0078250  12.0000000  12.0000000  15.9949146  14.0030740  12.0000000  14.0030740
 NucSpn=           0           1           0           1           0           0           0           2           0           2
 AtZEff=   3.6000000   1.0000000   3.6000000   1.0000000   3.6000000   3.6000000   5.6000000   4.5500000   3.6000000   4.5500000
 NQMom=    0.0000000   0.0000000   0.0000000   0.0000000   0.0000000   0.0000000   0.0000000   2.0440000   0.0000000   2.0440000
 NMagM=    0.0000000   2.7928460   0.0000000   2.7928460   0.0000000   0.0000000   0.0000000   0.4037610   0.0000000   0.4037610
 AtZNuc=   6.0000000   1.0000000   6.0000000   1.0000000   6.0000000   6.0000000   8.0000000   7.0000000   6.0000000   7.0000000

  Atom        11          12          13          14          15          16          17          18          19          20
 IAtWgt=          12          12           1          12           1          12          12          14          12          12
 AtmWgt=  12.0000000  12.0000000   1.0078250  12.0000000   1.0078250  12.0000000  12.0000000  14.0030740  12.0000000  12.0000000
 NucSpn=           0           0           1           0           1           0           0           2           0           0
 AtZEff=   3.6000000   3.6000000   1.0000000   3.6000000   1.0000000   3.6000000   3.6000000   4.5500000   3.6000000   3.6000000
 NQMom=    0.0000000   0.0000000   0.0000000   0.0000000   0.0000000   0.0000000   0.0000000   2.0440000   0.0000000   0.0000000
 NMagM=    0.0000000   0.0000000   2.7928460   0.0000000   2.7928460   0.0000000   0.0000000   0.4037610   0.0000000   0.0000000
 AtZNuc=   6.0000000   6.0000000   1.0000000   6.0000000   1.0000000   6.0000000   6.0000000   7.0000000   6.0000000   6.0000000

  Atom        21          22          23          24          25          26          27          28          29          30
 IAtWgt=           1          12          12          12           1          12          14          12          16          12
 AtmWgt=   1.0078250  12.0000000  12.0000000  12.0000000   1.0078250  12.0000000  14.0030740  12.0000000  15.9949146  12.0000000
 NucSpn=           1           0           0           0           1           0           2           0           0           0
 AtZEff=   1.0000000   3.6000000   3.6000000   3.6000000   1.0000000   3.6000000   4.5500000   3.6000000   5.6000000   3.6000000
 NQMom=    0.0000000   0.0000000   0.0000000   0.0000000   0.0000000   0.0000000   2.0440000   0.0000000   0.0000000   0.0000000
 NMagM=    2.7928460   0.0000000   0.0000000   0.0000000   2.7928460   0.0000000   0.4037610   0.0000000   0.0000000   0.0000000
 AtZNuc=   1.0000000   6.0000000   6.0000000   6.0000000   1.0000000   6.0000000   7.0000000   6.0000000   8.0000000   6.0000000

  Atom        31          32          33          34          35          36          37          38          39          40
 IAtWgt=          12          12          12           1          12           1          12          12          16          14
 AtmWgt=  12.0000000  12.0000000  12.0000000   1.0078250  12.0000000   1.0078250  12.0000000  12.0000000  15.9949146  14.0030740
 NucSpn=           0           0           0           1           0           1           0           0           0           2
 AtZEff=   3.6000000   3.6000000   3.6000000   1.0000000   3.6000000   1.0000000   3.6000000   3.6000000   5.6000000   4.5500000
 NQMom=    0.0000000   0.0000000   0.0000000   0.0000000   0.0000000   0.0000000   0.0000000   0.0000000   0.0000000   2.0440000
 NMagM=    0.0000000   0.0000000   0.0000000   2.7928460   0.0000000   2.7928460   0.0000000   0.0000000   0.0000000   0.4037610
 AtZNuc=   6.0000000   6.0000000   6.0000000   1.0000000   6.0000000   1.0000000   6.0000000   6.0000000   8.0000000   7.0000000

  Atom        41          42          43          44          45          46          47          48          49          50
 IAtWgt=          12          14          12          12           1          12           1          12          12          14
 AtmWgt=  12.0000000  14.0030740  12.0000000  12.0000000   1.0078250  12.0000000   1.0078250  12.0000000  12.0000000  14.0030740
 NucSpn=           0           2           0           0           1           0           1           0           0           2
 AtZEff=   3.6000000   4.5500000   3.6000000   3.6000000   1.0000000   3.6000000   1.0000000   3.6000000   3.6000000   4.5500000
 NQMom=    0.0000000   2.0440000   0.0000000   0.0000000   0.0000000   0.0000000   0.0000000   0.0000000   0.0000000   2.0440000
 NMagM=    0.0000000   0.4037610   0.0000000   0.0000000   2.7928460   0.0000000   2.7928460   0.0000000   0.0000000   0.4037610
 AtZNuc=   6.0000000   7.0000000   6.0000000   6.0000000   1.0000000   6.0000000   1.0000000   6.0000000   6.0000000   7.0000000

  Atom        51          52          53          54          55          56          57          58          59          60
 IAtWgt=          12          12           1          12          12          12           1          12          14          12
 AtmWgt=  12.0000000  12.0000000   1.0078250  12.0000000  12.0000000  12.0000000   1.0078250  12.0000000  14.0030740  12.0000000
 NucSpn=           0           0           1           0           0           0           1           0           2           0
 AtZEff=   3.6000000   3.6000000   1.0000000   3.6000000   3.6000000   3.6000000   1.0000000   3.6000000   4.5500000   3.6000000
 NQMom=    0.0000000   0.0000000   0.0000000   0.0000000   0.0000000   0.0000000   0.0000000   0.0000000   2.0440000   0.0000000
 NMagM=    0.0000000   0.0000000   2.7928460   0.0000000   0.0000000   0.0000000   2.7928460   0.0000000   0.4037610   0.0000000
 AtZNuc=   6.0000000   6.0000000   1.0000000   6.0000000   6.0000000   6.0000000   1.0000000   6.0000000   7.0000000   6.0000000

  Atom        61          62          63          64          65          66          67          68          69          70
 IAtWgt=          16          12          12          12          12           1          12           1          12          12
 AtmWgt=  15.9949146  12.0000000  12.0000000  12.0000000  12.0000000   1.0078250  12.0000000   1.0078250  12.0000000  12.0000000
 NucSpn=           0           0           0           0           0           1           0           1           0           0
 AtZEff=   5.6000000   3.6000000   3.6000000   3.6000000   3.6000000   1.0000000   3.6000000   1.0000000   3.6000000   3.6000000
 NQMom=    0.0000000   0.0000000   0.0000000   0.0000000   0.0000000   0.0000000   0.0000000   0.0000000   0.0000000   0.0000000
 NMagM=    0.0000000   0.0000000   0.0000000   0.0000000   0.0000000   2.7928460   0.0000000   2.7928460   0.0000000   0.0000000
 AtZNuc=   8.0000000   6.0000000   6.0000000   6.0000000   6.0000000   1.0000000   6.0000000   1.0000000   6.0000000   6.0000000

  Atom        71          72          73          74          75          76          77          78          79          80
 IAtWgt=          16          14          12          14          12          12           1          12           1          12
 AtmWgt=  15.9949146  14.0030740  12.0000000  14.0030740  12.0000000  12.0000000   1.0078250  12.0000000   1.0078250  12.0000000
 NucSpn=           0           2           0           2           0           0           1           0           1           0
 AtZEff=   5.6000000   4.5500000   3.6000000   4.5500000   3.6000000   3.6000000   1.0000000   3.6000000   1.0000000   3.6000000
 NQMom=    0.0000000   2.0440000   0.0000000   2.0440000   0.0000000   0.0000000   0.0000000   0.0000000   0.0000000   0.0000000
 NMagM=    0.0000000   0.4037610   0.0000000   0.4037610   0.0000000   0.0000000   2.7928460   0.0000000   2.7928460   0.0000000
 AtZNuc=   8.0000000   7.0000000   6.0000000   7.0000000   6.0000000   6.0000000   1.0000000   6.0000000   1.0000000   6.0000000

  Atom        81          82          83          84          85          86          87          88          89          90
 IAtWgt=          12          14          12          12           1          12          12          12           1          12
 AtmWgt=  12.0000000  14.0030740  12.0000000  12.0000000   1.0078250  12.0000000  12.0000000  12.0000000   1.0078250  12.0000000
 NucSpn=           0           2           0           0           1           0           0           0           1           0
 AtZEff=   3.6000000   4.5500000   3.6000000   3.6000000   1.0000000   3.6000000   3.6000000   3.6000000   1.0000000   3.6000000
 NQMom=    0.0000000   2.0440000   0.0000000   0.0000000   0.0000000   0.0000000   0.0000000   0.0000000   0.0000000   0.0000000
 NMagM=    0.0000000   0.4037610   0.0000000   0.0000000   2.7928460   0.0000000   0.0000000   0.0000000   2.7928460   0.0000000
 AtZNuc=   6.0000000   7.0000000   6.0000000   6.0000000   1.0000000   6.0000000   6.0000000   6.0000000   1.0000000   6.0000000

  Atom        91          92          93          94          95          96          97          98          99         100
 IAtWgt=          14          12          16          12          12          12          12           1          12           1
 AtmWgt=  14.0030740  12.0000000  15.9949146  12.0000000  12.0000000  12.0000000  12.0000000   1.0078250  12.0000000   1.0078250
 NucSpn=           2           0           0           0           0           0           0           1           0           1
 AtZEff=   4.5500000   3.6000000   5.6000000   3.6000000   3.6000000   3.6000000   3.6000000   1.0000000   3.6000000   1.0000000
 NQMom=    2.0440000   0.0000000   0.0000000   0.0000000   0.0000000   0.0000000   0.0000000   0.0000000   0.0000000   0.0000000
 NMagM=    0.4037610   0.0000000   0.0000000   0.0000000   0.0000000   0.0000000   0.0000000   2.7928460   0.0000000   2.7928460
 AtZNuc=   7.0000000   6.0000000   8.0000000   6.0000000   6.0000000   6.0000000   6.0000000   1.0000000   6.0000000   1.0000000

  Atom       101         102         103         104         105         106         107         108         109         110
 IAtWgt=          12          12          16          14          12          14          12          12           1          12
 AtmWgt=  12.0000000  12.0000000  15.9949146  14.0030740  12.0000000  14.0030740  12.0000000  12.0000000   1.0078250  12.0000000
 NucSpn=           0           0           0           2           0           2           0           0           1           0
 AtZEff=   3.6000000   3.6000000   5.6000000   4.5500000   3.6000000   4.5500000   3.6000000   3.6000000   1.0000000   3.6000000
 NQMom=    0.0000000   0.0000000   0.0000000   2.0440000   0.0000000   2.0440000   0.0000000   0.0000000   0.0000000   0.0000000
 NMagM=    0.0000000   0.0000000   0.0000000   0.4037610   0.0000000   0.4037610   0.0000000   0.0000000   2.7928460   0.0000000
 AtZNuc=   6.0000000   6.0000000   8.0000000   7.0000000   6.0000000   7.0000000   6.0000000   6.0000000   1.0000000   6.0000000

  Atom       111         112         113         114         115         116         117         118         119         120
 IAtWgt=           1          12          12          14          12          12           1          12           1          12
 AtmWgt=   1.0078250  12.0000000  12.0000000  14.0030740  12.0000000  12.0000000   1.0078250  12.0000000   1.0078250  12.0000000
 NucSpn=           1           0           0           2           0           0           1           0           1           0
 AtZEff=   1.0000000   3.6000000   3.6000000   4.5500000   3.6000000   3.6000000   1.0000000   3.6000000   1.0000000   3.6000000
 NQMom=    0.0000000   0.0000000   0.0000000   2.0440000   0.0000000   0.0000000   0.0000000   0.0000000   0.0000000   0.0000000
 NMagM=    2.7928460   0.0000000   0.0000000   0.4037610   0.0000000   0.0000000   2.7928460   0.0000000   2.7928460   0.0000000
 AtZNuc=   1.0000000   6.0000000   6.0000000   7.0000000   6.0000000   6.0000000   1.0000000   6.0000000   1.0000000   6.0000000

  Atom       121         122         123         124         125         126         127         128         129         130
 IAtWgt=           1          12           1          12          14          12          16          12          12          12
 AtmWgt=   1.0078250  12.0000000   1.0078250  12.0000000  14.0030740  12.0000000  15.9949146  12.0000000  12.0000000  12.0000000
 NucSpn=           1           0           1           0           2           0           0           0           0           0
 AtZEff=   1.0000000   3.6000000   1.0000000   3.6000000   4.5500000   3.6000000   5.6000000   3.6000000   3.6000000   3.6000000
 NQMom=    0.0000000   0.0000000   0.0000000   0.0000000   2.0440000   0.0000000   0.0000000   0.0000000   0.0000000   0.0000000
 NMagM=    2.7928460   0.0000000   2.7928460   0.0000000   0.4037610   0.0000000   0.0000000   0.0000000   0.0000000   0.0000000
 AtZNuc=   1.0000000   6.0000000   1.0000000   6.0000000   7.0000000   6.0000000   8.0000000   6.0000000   6.0000000   6.0000000

  Atom       131         132         133         134         135         136         137         138         139         140
 IAtWgt=          12          12          12          12          12          12           1           1           1           1
 AtmWgt=  12.0000000  12.0000000  12.0000000  12.0000000  12.0000000  12.0000000   1.0078250   1.0078250   1.0078250   1.0078250
 NucSpn=           0           0           0           0           0           0           1           1           1           1
 AtZEff=   3.6000000   3.6000000   3.6000000   3.6000000   3.6000000   3.6000000   1.0000000   1.0000000   1.0000000   1.0000000
 NQMom=    0.0000000   0.0000000   0.0000000   0.0000000   0.0000000   0.0000000   0.0000000   0.0000000   0.0000000   0.0000000
 NMagM=    0.0000000   0.0000000   0.0000000   0.0000000   0.0000000   0.0000000   2.7928460   2.7928460   2.7928460   2.7928460
 AtZNuc=   6.0000000   6.0000000   6.0000000   6.0000000   6.0000000   6.0000000   1.0000000   1.0000000   1.0000000   1.0000000
 Leave Link  101 at Sat Sep 30 13:04:11 2023, MaxMem= 26843545600 cpu:               6.5 elap:               0.4
 (Enter /share/software/user/restricted/gaussian/g16.B01/l103.exe)

 GradGradGradGradGradGradGradGradGradGradGradGradGradGradGradGradGradGrad
 Berny optimization.
 Initialization pass.
                           ----------------------------
                           !    Initial Parameters    !
                           ! (Angstroms and Degrees)  !
 --------------------------                            --------------------------
 ! Name  Definition              Value          Derivative Info.                !
 --------------------------------------------------------------------------------
 ! R1    R(1,2)                  1.0827         estimate D2E/DX2                !
 ! R2    R(1,3)                  1.3968         estimate D2E/DX2                !
 ! R3    R(1,30)                 1.3821         estimate D2E/DX2                !
 ! R4    R(3,4)                  1.0835         estimate D2E/DX2                !
 ! R5    R(3,5)                  1.3813         estimate D2E/DX2                !
 ! R6    R(5,6)                  1.4765         estimate D2E/DX2                !
 ! R7    R(5,32)                 1.4189         estimate D2E/DX2                !
 ! R8    R(6,7)                  1.2084         estimate D2E/DX2                !
 ! R9    R(6,8)                  1.4039         estimate D2E/DX2                !
 ! R10   R(8,9)                  1.3948         estimate D2E/DX2                !
 ! R11   R(8,136)                1.3935         estimate D2E/DX2                !
 ! R12   R(9,10)                 1.2977         estimate D2E/DX2                !
 ! R13   R(9,11)                 1.4522         estimate D2E/DX2                !
 ! R14   R(10,131)               1.387          estimate D2E/DX2                !
 ! R15   R(11,12)                1.3779         estimate D2E/DX2                !
 ! R16   R(11,32)                1.4179         estimate D2E/DX2                !
 ! R17   R(12,13)                1.0831         estimate D2E/DX2                !
 ! R18   R(12,14)                1.4006         estimate D2E/DX2                !
 ! R19   R(14,15)                1.083          estimate D2E/DX2                !
 ! R20   R(14,16)                1.3769         estimate D2E/DX2                !
 ! R21   R(16,28)                1.4933         estimate D2E/DX2                !
 ! R22   R(16,31)                1.4169         estimate D2E/DX2                !
 ! R23   R(17,18)                1.2968         estimate D2E/DX2                !
 ! R24   R(17,27)                1.4012         estimate D2E/DX2                !
 ! R25   R(17,30)                1.4437         estimate D2E/DX2                !
 ! R26   R(18,19)                1.3818         estimate D2E/DX2                !
 ! R27   R(19,20)                1.3958         estimate D2E/DX2                !
 ! R28   R(19,26)                1.4181         estimate D2E/DX2                !
 ! R29   R(20,21)                1.0792         estimate D2E/DX2                !
 ! R30   R(20,22)                1.3792         estimate D2E/DX2                !
 ! R31   R(22,23)                1.4273         estimate D2E/DX2                !
 ! R32   R(22,40)                1.3907         estimate D2E/DX2                !
 ! R33   R(23,24)                1.3984         estimate D2E/DX2                !
 ! R34   R(23,42)                1.3666         estimate D2E/DX2                !
 ! R35   R(24,25)                1.079          estimate D2E/DX2                !
 ! R36   R(24,26)                1.3808         estimate D2E/DX2                !
 ! R37   R(26,27)                1.4016         estimate D2E/DX2                !
 ! R38   R(27,28)                1.386          estimate D2E/DX2                !
 ! R39   R(28,29)                1.2082         estimate D2E/DX2                !
 ! R40   R(30,31)                1.4216         estimate D2E/DX2                !
 ! R41   R(31,32)                1.4124         estimate D2E/DX2                !
 ! R42   R(33,34)                1.0831         estimate D2E/DX2                !
 ! R43   R(33,35)                1.3753         estimate D2E/DX2                !
 ! R44   R(33,62)                1.4029         estimate D2E/DX2                !
 ! R45   R(35,36)                1.083          estimate D2E/DX2                !
 ! R46   R(35,37)                1.4052         estimate D2E/DX2                !
 ! R47   R(37,38)                1.4547         estimate D2E/DX2                !
 ! R48   R(37,64)                1.417          estimate D2E/DX2                !
 ! R49   R(38,39)                1.22           estimate D2E/DX2                !
 ! R50   R(38,40)                1.4071         estimate D2E/DX2                !
 ! R51   R(40,41)                1.3938         estimate D2E/DX2                !
 ! R52   R(41,42)                1.3198         estimate D2E/DX2                !
 ! R53   R(41,43)                1.4248         estimate D2E/DX2                !
 ! R54   R(43,44)                1.407          estimate D2E/DX2                !
 ! R55   R(43,64)                1.4176         estimate D2E/DX2                !
 ! R56   R(44,45)                1.083          estimate D2E/DX2                !
 ! R57   R(44,46)                1.3739         estimate D2E/DX2                !
 ! R58   R(46,47)                1.0831         estimate D2E/DX2                !
 ! R59   R(46,48)                1.4053         estimate D2E/DX2                !
 ! R60   R(48,60)                1.4559         estimate D2E/DX2                !
 ! R61   R(48,63)                1.4189         estimate D2E/DX2                !
 ! R62   R(49,50)                1.3109         estimate D2E/DX2                !
 ! R63   R(49,59)                1.3937         estimate D2E/DX2                !
 ! R64   R(49,62)                1.4344         estimate D2E/DX2                !
 ! R65   R(50,51)                1.3769         estimate D2E/DX2                !
 ! R66   R(51,52)                1.3949         estimate D2E/DX2                !
 ! R67   R(51,58)                1.4216         estimate D2E/DX2                !
 ! R68   R(52,53)                1.079          estimate D2E/DX2                !
 ! R69   R(52,54)                1.383          estimate D2E/DX2                !
 ! R70   R(54,55)                1.4158         estimate D2E/DX2                !
 ! R71   R(54,72)                1.4004         estimate D2E/DX2                !
 ! R72   R(55,56)                1.3918         estimate D2E/DX2                !
 ! R73   R(55,74)                1.3888         estimate D2E/DX2                !
 ! R74   R(56,57)                1.0791         estimate D2E/DX2                !
 ! R75   R(56,58)                1.3832         estimate D2E/DX2                !
 ! R76   R(58,59)                1.3922         estimate D2E/DX2                !
 ! R77   R(59,60)                1.4075         estimate D2E/DX2                !
 ! R78   R(60,61)                1.2186         estimate D2E/DX2                !
 ! R79   R(62,63)                1.4143         estimate D2E/DX2                !
 ! R80   R(63,64)                1.4277         estimate D2E/DX2                !
 ! R81   R(65,66)                1.083          estimate D2E/DX2                !
 ! R82   R(65,67)                1.4006         estimate D2E/DX2                !
 ! R83   R(65,94)                1.3786         estimate D2E/DX2                !
 ! R84   R(67,68)                1.0833         estimate D2E/DX2                !
 ! R85   R(67,69)                1.3776         estimate D2E/DX2                !
 ! R86   R(69,70)                1.487          estimate D2E/DX2                !
 ! R87   R(69,96)                1.418          estimate D2E/DX2                !
 ! R88   R(70,71)                1.2085         estimate D2E/DX2                !
 ! R89   R(70,72)                1.3927         estimate D2E/DX2                !
 ! R90   R(72,73)                1.3992         estimate D2E/DX2                !
 ! R91   R(73,74)                1.2939         estimate D2E/DX2                !
 ! R92   R(73,75)                1.4514         estimate D2E/DX2                !
 ! R93   R(75,76)                1.378          estimate D2E/DX2                !
 ! R94   R(75,96)                1.4191         estimate D2E/DX2                !
 ! R95   R(76,77)                1.083          estimate D2E/DX2                !
 ! R96   R(76,78)                1.401          estimate D2E/DX2                !
 ! R97   R(78,79)                1.0833         estimate D2E/DX2                !
 ! R98   R(78,80)                1.377          estimate D2E/DX2                !
 ! R99   R(80,92)                1.4891         estimate D2E/DX2                !
 ! R100  R(80,95)                1.4178         estimate D2E/DX2                !
 ! R101  R(81,82)                1.2942         estimate D2E/DX2                !
 ! R102  R(81,91)                1.4001         estimate D2E/DX2                !
 ! R103  R(81,94)                1.4502         estimate D2E/DX2                !
 ! R104  R(82,83)                1.3878         estimate D2E/DX2                !
 ! R105  R(83,84)                1.393          estimate D2E/DX2                !
 ! R106  R(83,90)                1.4158         estimate D2E/DX2                !
 ! R107  R(84,85)                1.0792         estimate D2E/DX2                !
 ! R108  R(84,86)                1.3821         estimate D2E/DX2                !
 ! R109  R(86,87)                1.4234         estimate D2E/DX2                !
 ! R110  R(86,104)               1.3919         estimate D2E/DX2                !
 ! R111  R(87,88)                1.3959         estimate D2E/DX2                !
 ! R112  R(87,106)               1.3736         estimate D2E/DX2                !
 ! R113  R(88,89)                1.079          estimate D2E/DX2                !
 ! R114  R(88,90)                1.3828         estimate D2E/DX2                !
 ! R115  R(90,91)                1.4012         estimate D2E/DX2                !
 ! R116  R(91,92)                1.3905         estimate D2E/DX2                !
 ! R117  R(92,93)                1.2085         estimate D2E/DX2                !
 ! R118  R(94,95)                1.4196         estimate D2E/DX2                !
 ! R119  R(95,96)                1.4121         estimate D2E/DX2                !
 ! R120  R(97,98)                1.0832         estimate D2E/DX2                !
 ! R121  R(97,99)                1.3744         estimate D2E/DX2                !
 ! R122  R(97,128)               1.4049         estimate D2E/DX2                !
 ! R123  R(99,100)               1.0831         estimate D2E/DX2                !
 ! R124  R(99,101)               1.4057         estimate D2E/DX2                !
 ! R125  R(101,102)              1.455          estimate D2E/DX2                !
 ! R126  R(101,130)              1.418          estimate D2E/DX2                !
 ! R127  R(102,103)              1.2201         estimate D2E/DX2                !
 ! R128  R(102,104)              1.4068         estimate D2E/DX2                !
 ! R129  R(104,105)              1.3947         estimate D2E/DX2                !
 ! R130  R(105,106)              1.3148         estimate D2E/DX2                !
 ! R131  R(105,107)              1.4295         estimate D2E/DX2                !
 ! R132  R(107,108)              1.4066         estimate D2E/DX2                !
 ! R133  R(107,130)              1.4156         estimate D2E/DX2                !
 ! R134  R(108,109)              1.0831         estimate D2E/DX2                !
 ! R135  R(108,110)              1.3734         estimate D2E/DX2                !
 ! R136  R(110,111)              1.0832         estimate D2E/DX2                !
 ! R137  R(110,112)              1.4071         estimate D2E/DX2                !
 ! R138  R(112,126)              1.4524         estimate D2E/DX2                !
 ! R139  R(112,129)              1.4198         estimate D2E/DX2                !
 ! R140  R(113,114)              1.3135         estimate D2E/DX2                !
 ! R141  R(113,125)              1.3946         estimate D2E/DX2                !
 ! R142  R(113,128)              1.4333         estimate D2E/DX2                !
 ! R143  R(114,115)              1.3775         estimate D2E/DX2                !
 ! R144  R(115,116)              1.3966         estimate D2E/DX2                !
 ! R145  R(115,124)              1.4084         estimate D2E/DX2                !
 ! R146  R(116,117)              1.0837         estimate D2E/DX2                !
 ! R147  R(116,118)              1.3851         estimate D2E/DX2                !
 ! R148  R(118,119)              1.0852         estimate D2E/DX2                !
 ! R149  R(118,120)              1.4026         estimate D2E/DX2                !
 ! R150  R(120,121)              1.0846         estimate D2E/DX2                !
 ! R151  R(120,122)              1.3882         estimate D2E/DX2                !
 ! R152  R(122,123)              1.0803         estimate D2E/DX2                !
 ! R153  R(122,124)              1.3898         estimate D2E/DX2                !
 ! R154  R(124,125)              1.3903         estimate D2E/DX2                !
 ! R155  R(125,126)              1.4089         estimate D2E/DX2                !
 ! R156  R(126,127)              1.221          estimate D2E/DX2                !
 ! R157  R(128,129)              1.4139         estimate D2E/DX2                !
 ! R158  R(129,130)              1.4287         estimate D2E/DX2                !
 ! R159  R(131,132)              1.3933         estimate D2E/DX2                !
 ! R160  R(131,136)              1.4039         estimate D2E/DX2                !
 ! R161  R(132,133)              1.3845         estimate D2E/DX2                !
 ! R162  R(132,137)              1.083          estimate D2E/DX2                !
 ! R163  R(133,134)              1.4023         estimate D2E/DX2                !
 ! R164  R(133,138)              1.0841         estimate D2E/DX2                !
 ! R165  R(134,135)              1.387          estimate D2E/DX2                !
 ! R166  R(134,139)              1.084          estimate D2E/DX2                !
 ! R167  R(135,136)              1.3896         estimate D2E/DX2                !
 ! R168  R(135,140)              1.0801         estimate D2E/DX2                !
 ! A1    A(2,1,3)              121.1159         estimate D2E/DX2                !
 ! A2    A(2,1,30)             118.7189         estimate D2E/DX2                !
 ! A3    A(3,1,30)             120.1651         estimate D2E/DX2                !
 ! A4    A(1,3,4)              120.5416         estimate D2E/DX2                !
 ! A5    A(1,3,5)              121.0791         estimate D2E/DX2                !
 ! A6    A(4,3,5)              118.3794         estimate D2E/DX2                !
 ! A7    A(3,5,6)              118.9068         estimate D2E/DX2                !
 ! A8    A(3,5,32)             119.8944         estimate D2E/DX2                !
 ! A9    A(6,5,32)             121.1989         estimate D2E/DX2                !
 ! A10   A(5,6,7)              124.8643         estimate D2E/DX2                !
 ! A11   A(5,6,8)              114.2526         estimate D2E/DX2                !
 ! A12   A(7,6,8)              120.8832         estimate D2E/DX2                !
 ! A13   A(6,8,9)              126.0307         estimate D2E/DX2                !
 ! A14   A(6,8,136)            127.9424         estimate D2E/DX2                !
 ! A15   A(9,8,136)            106.0269         estimate D2E/DX2                !
 ! A16   A(8,9,10)             113.3197         estimate D2E/DX2                !
 ! A17   A(8,9,11)             119.1318         estimate D2E/DX2                !
 ! A18   A(10,9,11)            127.5486         estimate D2E/DX2                !
 ! A19   A(9,10,131)           105.1763         estimate D2E/DX2                !
 ! A20   A(9,11,12)            121.7846         estimate D2E/DX2                !
 ! A21   A(9,11,32)            117.6265         estimate D2E/DX2                !
 ! A22   A(12,11,32)           120.5889         estimate D2E/DX2                !
 ! A23   A(11,12,13)           118.8392         estimate D2E/DX2                !
 ! A24   A(11,12,14)           120.2394         estimate D2E/DX2                !
 ! A25   A(13,12,14)           120.9214         estimate D2E/DX2                !
 ! A26   A(12,14,15)           120.9749         estimate D2E/DX2                !
 ! A27   A(12,14,16)           120.5545         estimate D2E/DX2                !
 ! A28   A(15,14,16)           118.4706         estimate D2E/DX2                !
 ! A29   A(14,16,28)           118.4495         estimate D2E/DX2                !
 ! A30   A(14,16,31)           120.2601         estimate D2E/DX2                !
 ! A31   A(28,16,31)           121.2904         estimate D2E/DX2                !
 ! A32   A(18,17,27)           112.9968         estimate D2E/DX2                !
 ! A33   A(18,17,30)           127.2129         estimate D2E/DX2                !
 ! A34   A(27,17,30)           119.7903         estimate D2E/DX2                !
 ! A35   A(17,18,19)           106.0086         estimate D2E/DX2                !
 ! A36   A(18,19,20)           127.8436         estimate D2E/DX2                !
 ! A37   A(18,19,26)           110.6225         estimate D2E/DX2                !
 ! A38   A(20,19,26)           121.534          estimate D2E/DX2                !
 ! A39   A(19,20,21)           122.9353         estimate D2E/DX2                !
 ! A40   A(19,20,22)           114.6084         estimate D2E/DX2                !
 ! A41   A(21,20,22)           122.4564         estimate D2E/DX2                !
 ! A42   A(20,22,23)           124.0289         estimate D2E/DX2                !
 ! A43   A(20,22,40)           131.7345         estimate D2E/DX2                !
 ! A44   A(23,22,40)           104.2366         estimate D2E/DX2                !
 ! A45   A(22,23,24)           121.0924         estimate D2E/DX2                !
 ! A46   A(22,23,42)           111.0212         estimate D2E/DX2                !
 ! A47   A(24,23,42)           127.8863         estimate D2E/DX2                !
 ! A48   A(23,24,25)           122.093          estimate D2E/DX2                !
 ! A49   A(23,24,26)           114.6799         estimate D2E/DX2                !
 ! A50   A(25,24,26)           123.2271         estimate D2E/DX2                !
 ! A51   A(19,26,24)           124.0564         estimate D2E/DX2                !
 ! A52   A(19,26,27)           104.2422         estimate D2E/DX2                !
 ! A53   A(24,26,27)           131.7014         estimate D2E/DX2                !
 ! A54   A(17,27,26)           106.1299         estimate D2E/DX2                !
 ! A55   A(17,27,28)           125.6712         estimate D2E/DX2                !
 ! A56   A(26,27,28)           128.1989         estimate D2E/DX2                !
 ! A57   A(16,28,27)           114.3481         estimate D2E/DX2                !
 ! A58   A(16,28,29)           123.0997         estimate D2E/DX2                !
 ! A59   A(27,28,29)           122.5522         estimate D2E/DX2                !
 ! A60   A(1,30,17)            122.1218         estimate D2E/DX2                !
 ! A61   A(1,30,31)            120.1751         estimate D2E/DX2                !
 ! A62   A(17,30,31)           117.703          estimate D2E/DX2                !
 ! A63   A(16,31,30)           121.197          estimate D2E/DX2                !
 ! A64   A(16,31,32)           119.4154         estimate D2E/DX2                !
 ! A65   A(30,31,32)           119.3876         estimate D2E/DX2                !
 ! A66   A(5,32,11)            121.7595         estimate D2E/DX2                !
 ! A67   A(5,32,31)            119.2987         estimate D2E/DX2                !
 ! A68   A(11,32,31)           118.9417         estimate D2E/DX2                !
 ! A69   A(34,33,35)           121.4378         estimate D2E/DX2                !
 ! A70   A(34,33,62)           118.3181         estimate D2E/DX2                !
 ! A71   A(35,33,62)           120.2441         estimate D2E/DX2                !
 ! A72   A(33,35,36)           121.256          estimate D2E/DX2                !
 ! A73   A(33,35,37)           120.7559         estimate D2E/DX2                !
 ! A74   A(36,35,37)           117.9881         estimate D2E/DX2                !
 ! A75   A(35,37,38)           118.6999         estimate D2E/DX2                !
 ! A76   A(35,37,64)           120.217          estimate D2E/DX2                !
 ! A77   A(38,37,64)           121.0832         estimate D2E/DX2                !
 ! A78   A(37,38,39)           125.9402         estimate D2E/DX2                !
 ! A79   A(37,38,40)           113.9863         estimate D2E/DX2                !
 ! A80   A(39,38,40)           120.0735         estimate D2E/DX2                !
 ! A81   A(22,40,38)           127.263          estimate D2E/DX2                !
 ! A82   A(22,40,41)           106.4864         estimate D2E/DX2                !
 ! A83   A(38,40,41)           126.2506         estimate D2E/DX2                !
 ! A84   A(40,41,42)           112.8051         estimate D2E/DX2                !
 ! A85   A(40,41,43)           119.045          estimate D2E/DX2                !
 ! A86   A(42,41,43)           128.1499         estimate D2E/DX2                !
 ! A87   A(23,42,41)           105.4507         estimate D2E/DX2                !
 ! A88   A(41,43,44)           121.7637         estimate D2E/DX2                !
 ! A89   A(41,43,64)           117.6294         estimate D2E/DX2                !
 ! A90   A(44,43,64)           120.6069         estimate D2E/DX2                !
 ! A91   A(43,44,45)           118.3308         estimate D2E/DX2                !
 ! A92   A(43,44,46)           120.2665         estimate D2E/DX2                !
 ! A93   A(45,44,46)           121.4028         estimate D2E/DX2                !
 ! A94   A(44,46,47)           121.2034         estimate D2E/DX2                !
 ! A95   A(44,46,48)           120.911          estimate D2E/DX2                !
 ! A96   A(47,46,48)           117.8856         estimate D2E/DX2                !
 ! A97   A(46,48,60)           118.6869         estimate D2E/DX2                !
 ! A98   A(46,48,63)           120.1199         estimate D2E/DX2                !
 ! A99   A(60,48,63)           121.1931         estimate D2E/DX2                !
 ! A100  A(50,49,59)           113.1143         estimate D2E/DX2                !
 ! A101  A(50,49,62)           127.8914         estimate D2E/DX2                !
 ! A102  A(59,49,62)           118.9943         estimate D2E/DX2                !
 ! A103  A(49,50,51)           105.3401         estimate D2E/DX2                !
 ! A104  A(50,51,52)           127.8514         estimate D2E/DX2                !
 ! A105  A(50,51,58)           110.8291         estimate D2E/DX2                !
 ! A106  A(52,51,58)           121.3195         estimate D2E/DX2                !
 ! A107  A(51,52,53)           122.2408         estimate D2E/DX2                !
 ! A108  A(51,52,54)           114.6966         estimate D2E/DX2                !
 ! A109  A(53,52,54)           123.0625         estimate D2E/DX2                !
 ! A110  A(52,54,55)           123.8547         estimate D2E/DX2                !
 ! A111  A(52,54,72)           131.8134         estimate D2E/DX2                !
 ! A112  A(55,54,72)           104.3319         estimate D2E/DX2                !
 ! A113  A(54,55,56)           121.6651         estimate D2E/DX2                !
 ! A114  A(54,55,74)           110.5317         estimate D2E/DX2                !
 ! A115  A(56,55,74)           127.8032         estimate D2E/DX2                !
 ! A116  A(55,56,57)           122.8206         estimate D2E/DX2                !
 ! A117  A(55,56,58)           114.629          estimate D2E/DX2                !
 ! A118  A(57,56,58)           122.5504         estimate D2E/DX2                !
 ! A119  A(51,58,56)           123.8352         estimate D2E/DX2                !
 ! A120  A(51,58,59)           104.357          estimate D2E/DX2                !
 ! A121  A(56,58,59)           131.8078         estimate D2E/DX2                !
 ! A122  A(49,59,58)           106.3594         estimate D2E/DX2                !
 ! A123  A(49,59,60)           126.0903         estimate D2E/DX2                !
 ! A124  A(58,59,60)           127.5503         estimate D2E/DX2                !
 ! A125  A(48,60,59)           114.1417         estimate D2E/DX2                !
 ! A126  A(48,60,61)           125.6391         estimate D2E/DX2                !
 ! A127  A(59,60,61)           120.2192         estimate D2E/DX2                !
 ! A128  A(33,62,49)           121.5351         estimate D2E/DX2                !
 ! A129  A(33,62,63)           120.7725         estimate D2E/DX2                !
 ! A130  A(49,62,63)           117.6924         estimate D2E/DX2                !
 ! A131  A(48,63,62)           121.8882         estimate D2E/DX2                !
 ! A132  A(48,63,64)           119.2305         estimate D2E/DX2                !
 ! A133  A(62,63,64)           118.8813         estimate D2E/DX2                !
 ! A134  A(37,64,43)           122.0056         estimate D2E/DX2                !
 ! A135  A(37,64,63)           119.1292         estimate D2E/DX2                !
 ! A136  A(43,64,63)           118.8652         estimate D2E/DX2                !
 ! A137  A(66,65,67)           121.0285         estimate D2E/DX2                !
 ! A138  A(66,65,94)           118.7412         estimate D2E/DX2                !
 ! A139  A(67,65,94)           120.2303         estimate D2E/DX2                !
 ! A140  A(65,67,68)           120.7229         estimate D2E/DX2                !
 ! A141  A(65,67,69)           120.8825         estimate D2E/DX2                !
 ! A142  A(68,67,69)           118.3946         estimate D2E/DX2                !
 ! A143  A(67,69,70)           118.7657         estimate D2E/DX2                !
 ! A144  A(67,69,96)           119.9742         estimate D2E/DX2                !
 ! A145  A(70,69,96)           121.2601         estimate D2E/DX2                !
 ! A146  A(69,70,71)           123.7273         estimate D2E/DX2                !
 ! A147  A(69,70,72)           114.4077         estimate D2E/DX2                !
 ! A148  A(71,70,72)           121.8651         estimate D2E/DX2                !
 ! A149  A(54,72,70)           128.1034         estimate D2E/DX2                !
 ! A150  A(54,72,73)           106.116          estimate D2E/DX2                !
 ! A151  A(70,72,73)           125.7806         estimate D2E/DX2                !
 ! A152  A(72,73,74)           113.2887         estimate D2E/DX2                !
 ! A153  A(72,73,75)           119.4435         estimate D2E/DX2                !
 ! A154  A(74,73,75)           127.2678         estimate D2E/DX2                !
 ! A155  A(55,74,73)           105.7317         estimate D2E/DX2                !
 ! A156  A(73,75,76)           121.9693         estimate D2E/DX2                !
 ! A157  A(73,75,96)           117.6935         estimate D2E/DX2                !
 ! A158  A(76,75,96)           120.3372         estimate D2E/DX2                !
 ! A159  A(75,76,77)           118.7594         estimate D2E/DX2                !
 ! A160  A(75,76,78)           120.2291         estimate D2E/DX2                !
 ! A161  A(77,76,78)           121.0115         estimate D2E/DX2                !
 ! A162  A(76,78,79)           120.777          estimate D2E/DX2                !
 ! A163  A(76,78,80)           120.8132         estimate D2E/DX2                !
 ! A164  A(79,78,80)           118.4098         estimate D2E/DX2                !
 ! A165  A(78,80,92)           118.6981         estimate D2E/DX2                !
 ! A166  A(78,80,95)           120.0299         estimate D2E/DX2                !
 ! A167  A(92,80,95)           121.272          estimate D2E/DX2                !
 ! A168  A(82,81,91)           113.2071         estimate D2E/DX2                !
 ! A169  A(82,81,94)           127.2648         estimate D2E/DX2                !
 ! A170  A(91,81,94)           119.528          estimate D2E/DX2                !
 ! A171  A(81,82,83)           105.8126         estimate D2E/DX2                !
 ! A172  A(82,83,84)           127.8456         estimate D2E/DX2                !
 ! A173  A(82,83,90)           110.5495         estimate D2E/DX2                !
 ! A174  A(84,83,90)           121.6049         estimate D2E/DX2                !
 ! A175  A(83,84,85)           122.8723         estimate D2E/DX2                !
 ! A176  A(83,84,86)           114.6659         estimate D2E/DX2                !
 ! A177  A(85,84,86)           122.4618         estimate D2E/DX2                !
 ! A178  A(84,86,87)           123.887          estimate D2E/DX2                !
 ! A179  A(84,86,104)          131.7865         estimate D2E/DX2                !
 ! A180  A(87,86,104)          104.3265         estimate D2E/DX2                !
 ! A181  A(86,87,88)           121.1935         estimate D2E/DX2                !
 ! A182  A(86,87,106)          110.9265         estimate D2E/DX2                !
 ! A183  A(88,87,106)          127.88           estimate D2E/DX2                !
 ! A184  A(87,88,89)           122.1756         estimate D2E/DX2                !
 ! A185  A(87,88,90)           114.7457         estimate D2E/DX2                !
 ! A186  A(89,88,90)           123.0787         estimate D2E/DX2                !
 ! A187  A(83,90,88)           123.9029         estimate D2E/DX2                !
 ! A188  A(83,90,91)           104.3159         estimate D2E/DX2                !
 ! A189  A(88,90,91)           131.7811         estimate D2E/DX2                !
 ! A190  A(81,91,90)           106.1148         estimate D2E/DX2                !
 ! A191  A(81,91,92)           125.7359         estimate D2E/DX2                !
 ! A192  A(90,91,92)           128.1493         estimate D2E/DX2                !
 ! A193  A(80,92,91)           114.4164         estimate D2E/DX2                !
 ! A194  A(80,92,93)           123.5092         estimate D2E/DX2                !
 ! A195  A(91,92,93)           122.0744         estimate D2E/DX2                !
 ! A196  A(65,94,81)           122.0341         estimate D2E/DX2                !
 ! A197  A(65,94,95)           120.2666         estimate D2E/DX2                !
 ! A198  A(81,94,95)           117.6993         estimate D2E/DX2                !
 ! A199  A(80,95,94)           121.3485         estimate D2E/DX2                !
 ! A200  A(80,95,96)           119.3894         estimate D2E/DX2                !
 ! A201  A(94,95,96)           119.2622         estimate D2E/DX2                !
 ! A202  A(69,96,75)           121.4145         estimate D2E/DX2                !
 ! A203  A(69,96,95)           119.3842         estimate D2E/DX2                !
 ! A204  A(75,96,95)           119.2012         estimate D2E/DX2                !
 ! A205  A(98,97,99)           121.435          estimate D2E/DX2                !
 ! A206  A(98,97,128)          118.287          estimate D2E/DX2                !
 ! A207  A(99,97,128)          120.2779         estimate D2E/DX2                !
 ! A208  A(97,99,100)          121.2942         estimate D2E/DX2                !
 ! A209  A(97,99,101)          120.7936         estimate D2E/DX2                !
 ! A210  A(100,99,101)         117.9121         estimate D2E/DX2                !
 ! A211  A(99,101,102)         118.6883         estimate D2E/DX2                !
 ! A212  A(99,101,130)         120.1606         estimate D2E/DX2                !
 ! A213  A(102,101,130)        121.1511         estimate D2E/DX2                !
 ! A214  A(101,102,103)        125.7371         estimate D2E/DX2                !
 ! A215  A(101,102,104)        114.0971         estimate D2E/DX2                !
 ! A216  A(103,102,104)        120.1657         estimate D2E/DX2                !
 ! A217  A(86,104,102)         127.4515         estimate D2E/DX2                !
 ! A218  A(86,104,105)         106.4078         estimate D2E/DX2                !
 ! A219  A(102,104,105)        126.1406         estimate D2E/DX2                !
 ! A220  A(104,105,106)        112.9646         estimate D2E/DX2                !
 ! A221  A(104,105,107)        118.9874         estimate D2E/DX2                !
 ! A222  A(106,105,107)        128.048          estimate D2E/DX2                !
 ! A223  A(87,106,105)         105.3746         estimate D2E/DX2                !
 ! A224  A(105,107,108)        121.6383         estimate D2E/DX2                !
 ! A225  A(105,107,130)        117.7088         estimate D2E/DX2                !
 ! A226  A(108,107,130)        120.653          estimate D2E/DX2                !
 ! A227  A(107,108,109)        118.2642         estimate D2E/DX2                !
 ! A228  A(107,108,110)        120.2885         estimate D2E/DX2                !
 ! A229  A(109,108,110)        121.4472         estimate D2E/DX2                !
 ! A230  A(108,110,111)        121.2196         estimate D2E/DX2                !
 ! A231  A(108,110,112)        120.9066         estimate D2E/DX2                !
 ! A232  A(111,110,112)        117.8739         estimate D2E/DX2                !
 ! A233  A(110,112,126)        118.7521         estimate D2E/DX2                !
 ! A234  A(110,112,129)        120.0519         estimate D2E/DX2                !
 ! A235  A(126,112,129)        121.196          estimate D2E/DX2                !
 ! A236  A(114,113,125)        112.9831         estimate D2E/DX2                !
 ! A237  A(114,113,128)        128.1117         estimate D2E/DX2                !
 ! A238  A(125,113,128)        118.9052         estimate D2E/DX2                !
 ! A239  A(113,114,115)        104.9945         estimate D2E/DX2                !
 ! A240  A(114,115,116)        129.2655         estimate D2E/DX2                !
 ! A241  A(114,115,124)        111.1966         estimate D2E/DX2                !
 ! A242  A(116,115,124)        119.5379         estimate D2E/DX2                !
 ! A243  A(115,116,117)        119.8597         estimate D2E/DX2                !
 ! A244  A(115,116,118)        118.2254         estimate D2E/DX2                !
 ! A245  A(117,116,118)        121.9149         estimate D2E/DX2                !
 ! A246  A(116,118,119)        119.4727         estimate D2E/DX2                !
 ! A247  A(116,118,120)        121.3604         estimate D2E/DX2                !
 ! A248  A(119,118,120)        119.1669         estimate D2E/DX2                !
 ! A249  A(118,120,121)        119.3724         estimate D2E/DX2                !
 ! A250  A(118,120,122)        121.4418         estimate D2E/DX2                !
 ! A251  A(121,120,122)        119.1857         estimate D2E/DX2                !
 ! A252  A(120,122,123)        122.7582         estimate D2E/DX2                !
 ! A253  A(120,122,124)        116.7621         estimate D2E/DX2                !
 ! A254  A(123,122,124)        120.4797         estimate D2E/DX2                !
 ! A255  A(115,124,122)        122.6724         estimate D2E/DX2                !
 ! A256  A(115,124,125)        104.6288         estimate D2E/DX2                !
 ! A257  A(122,124,125)        132.6989         estimate D2E/DX2                !
 ! A258  A(113,125,124)        106.1971         estimate D2E/DX2                !
 ! A259  A(113,125,126)        126.1412         estimate D2E/DX2                !
 ! A260  A(124,125,126)        127.6617         estimate D2E/DX2                !
 ! A261  A(112,126,125)        114.1207         estimate D2E/DX2                !
 ! A262  A(112,126,127)        125.87           estimate D2E/DX2                !
 ! A263  A(125,126,127)        120.0093         estimate D2E/DX2                !
 ! A264  A(97,128,113)         121.5803         estimate D2E/DX2                !
 ! A265  A(97,128,129)         120.735          estimate D2E/DX2                !
 ! A266  A(113,128,129)        117.6847         estimate D2E/DX2                !
 ! A267  A(112,129,128)        121.9522         estimate D2E/DX2                !
 ! A268  A(112,129,130)        119.1755         estimate D2E/DX2                !
 ! A269  A(128,129,130)        118.8723         estimate D2E/DX2                !
 ! A270  A(101,130,107)        121.9149         estimate D2E/DX2                !
 ! A271  A(101,130,129)        119.1605         estimate D2E/DX2                !
 ! A272  A(107,130,129)        118.9245         estimate D2E/DX2                !
 ! A273  A(10,131,132)         129.0521         estimate D2E/DX2                !
 ! A274  A(10,131,136)         110.8521         estimate D2E/DX2                !
 ! A275  A(132,131,136)        120.0958         estimate D2E/DX2                !
 ! A276  A(131,132,133)        117.8185         estimate D2E/DX2                !
 ! A277  A(131,132,137)        120.1177         estimate D2E/DX2                !
 ! A278  A(133,132,137)        122.0637         estimate D2E/DX2                !
 ! A279  A(132,133,134)        121.3096         estimate D2E/DX2                !
 ! A280  A(132,133,138)        119.5374         estimate D2E/DX2                !
 ! A281  A(134,133,138)        119.1531         estimate D2E/DX2                !
 ! A282  A(133,134,135)        121.7596         estimate D2E/DX2                !
 ! A283  A(133,134,139)        119.2194         estimate D2E/DX2                !
 ! A284  A(135,134,139)        119.021          estimate D2E/DX2                !
 ! A285  A(134,135,136)        116.3968         estimate D2E/DX2                !
 ! A286  A(134,135,140)        122.5163         estimate D2E/DX2                !
 ! A287  A(136,135,140)        121.0869         estimate D2E/DX2                !
 ! A288  A(8,136,131)          104.625          estimate D2E/DX2                !
 ! A289  A(8,136,135)          132.7554         estimate D2E/DX2                !
 ! A290  A(131,136,135)        122.6197         estimate D2E/DX2                !
 ! D1    D(2,1,3,4)              0.0            estimate D2E/DX2                !
 ! D2    D(2,1,3,5)            180.0            estimate D2E/DX2                !
 ! D3    D(30,1,3,4)           180.0            estimate D2E/DX2                !
 ! D4    D(30,1,3,5)             0.0            estimate D2E/DX2                !
 ! D5    D(2,1,30,17)            0.0            estimate D2E/DX2                !
 ! D6    D(2,1,30,31)          180.0            estimate D2E/DX2                !
 ! D7    D(3,1,30,17)          180.0            estimate D2E/DX2                !
 ! D8    D(3,1,30,31)            0.0            estimate D2E/DX2                !
 ! D9    D(1,3,5,6)            180.0            estimate D2E/DX2                !
 ! D10   D(1,3,5,32)             0.0            estimate D2E/DX2                !
 ! D11   D(4,3,5,6)              0.0            estimate D2E/DX2                !
 ! D12   D(4,3,5,32)           180.0            estimate D2E/DX2                !
 ! D13   D(3,5,6,7)              0.0            estimate D2E/DX2                !
 ! D14   D(3,5,6,8)            180.0            estimate D2E/DX2                !
 ! D15   D(32,5,6,7)           180.0            estimate D2E/DX2                !
 ! D16   D(32,5,6,8)             0.0            estimate D2E/DX2                !
 ! D17   D(3,5,32,11)          180.0            estimate D2E/DX2                !
 ! D18   D(3,5,32,31)            0.0            estimate D2E/DX2                !
 ! D19   D(6,5,32,11)            0.0            estimate D2E/DX2                !
 ! D20   D(6,5,32,31)          180.0            estimate D2E/DX2                !
 ! D21   D(5,6,8,9)              0.0            estimate D2E/DX2                !
 ! D22   D(5,6,8,136)          180.0            estimate D2E/DX2                !
 ! D23   D(7,6,8,9)            180.0            estimate D2E/DX2                !
 ! D24   D(7,6,8,136)            0.0            estimate D2E/DX2                !
 ! D25   D(6,8,9,10)           180.0            estimate D2E/DX2                !
 ! D26   D(6,8,9,11)             0.0            estimate D2E/DX2                !
 ! D27   D(136,8,9,10)           0.0            estimate D2E/DX2                !
 ! D28   D(136,8,9,11)         180.0            estimate D2E/DX2                !
 ! D29   D(6,8,136,131)        180.0            estimate D2E/DX2                !
 ! D30   D(6,8,136,135)          0.0            estimate D2E/DX2                !
 ! D31   D(9,8,136,131)          0.0            estimate D2E/DX2                !
 ! D32   D(9,8,136,135)        180.0            estimate D2E/DX2                !
 ! D33   D(8,9,10,131)           0.0            estimate D2E/DX2                !
 ! D34   D(11,9,10,131)        180.0            estimate D2E/DX2                !
 ! D35   D(8,9,11,12)          180.0            estimate D2E/DX2                !
 ! D36   D(8,9,11,32)            0.0            estimate D2E/DX2                !
 ! D37   D(10,9,11,12)           0.0            estimate D2E/DX2                !
 ! D38   D(10,9,11,32)         180.0            estimate D2E/DX2                !
 ! D39   D(9,10,131,132)       180.0            estimate D2E/DX2                !
 ! D40   D(9,10,131,136)         0.0            estimate D2E/DX2                !
 ! D41   D(9,11,12,13)           0.0            estimate D2E/DX2                !
 ! D42   D(9,11,12,14)         180.0            estimate D2E/DX2                !
 ! D43   D(32,11,12,13)        180.0            estimate D2E/DX2                !
 ! D44   D(32,11,12,14)          0.0            estimate D2E/DX2                !
 ! D45   D(9,11,32,5)            0.0            estimate D2E/DX2                !
 ! D46   D(9,11,32,31)         180.0            estimate D2E/DX2                !
 ! D47   D(12,11,32,5)         180.0            estimate D2E/DX2                !
 ! D48   D(12,11,32,31)          0.0            estimate D2E/DX2                !
 ! D49   D(11,12,14,15)        180.0            estimate D2E/DX2                !
 ! D50   D(11,12,14,16)          0.0            estimate D2E/DX2                !
 ! D51   D(13,12,14,15)          0.0            estimate D2E/DX2                !
 ! D52   D(13,12,14,16)        180.0            estimate D2E/DX2                !
 ! D53   D(12,14,16,28)        180.0            estimate D2E/DX2                !
 ! D54   D(12,14,16,31)          0.0            estimate D2E/DX2                !
 ! D55   D(15,14,16,28)          0.0            estimate D2E/DX2                !
 ! D56   D(15,14,16,31)        180.0            estimate D2E/DX2                !
 ! D57   D(14,16,28,27)        180.0            estimate D2E/DX2                !
 ! D58   D(14,16,28,29)          0.0            estimate D2E/DX2                !
 ! D59   D(31,16,28,27)          0.0            estimate D2E/DX2                !
 ! D60   D(31,16,28,29)        180.0            estimate D2E/DX2                !
 ! D61   D(14,16,31,30)        180.0            estimate D2E/DX2                !
 ! D62   D(14,16,31,32)          0.0            estimate D2E/DX2                !
 ! D63   D(28,16,31,30)          0.0            estimate D2E/DX2                !
 ! D64   D(28,16,31,32)        180.0            estimate D2E/DX2                !
 ! D65   D(27,17,18,19)          0.0            estimate D2E/DX2                !
 ! D66   D(30,17,18,19)        180.0            estimate D2E/DX2                !
 ! D67   D(18,17,27,26)          0.0            estimate D2E/DX2                !
 ! D68   D(18,17,27,28)        180.0            estimate D2E/DX2                !
 ! D69   D(30,17,27,26)        180.0            estimate D2E/DX2                !
 ! D70   D(30,17,27,28)          0.0            estimate D2E/DX2                !
 ! D71   D(18,17,30,1)           0.0            estimate D2E/DX2                !
 ! D72   D(18,17,30,31)        180.0            estimate D2E/DX2                !
 ! D73   D(27,17,30,1)         180.0            estimate D2E/DX2                !
 ! D74   D(27,17,30,31)          0.0            estimate D2E/DX2                !
 ! D75   D(17,18,19,20)        180.0            estimate D2E/DX2                !
 ! D76   D(17,18,19,26)          0.0            estimate D2E/DX2                !
 ! D77   D(18,19,20,21)          0.0            estimate D2E/DX2                !
 ! D78   D(18,19,20,22)        180.0            estimate D2E/DX2                !
 ! D79   D(26,19,20,21)        180.0            estimate D2E/DX2                !
 ! D80   D(26,19,20,22)          0.0            estimate D2E/DX2                !
 ! D81   D(18,19,26,24)        180.0            estimate D2E/DX2                !
 ! D82   D(18,19,26,27)          0.0            estimate D2E/DX2                !
 ! D83   D(20,19,26,24)          0.0            estimate D2E/DX2                !
 ! D84   D(20,19,26,27)        180.0            estimate D2E/DX2                !
 ! D85   D(19,20,22,23)          0.0            estimate D2E/DX2                !
 ! D86   D(19,20,22,40)        180.0            estimate D2E/DX2                !
 ! D87   D(21,20,22,23)        180.0            estimate D2E/DX2                !
 ! D88   D(21,20,22,40)          0.0            estimate D2E/DX2                !
 ! D89   D(20,22,23,24)          0.0            estimate D2E/DX2                !
 ! D90   D(20,22,23,42)        180.0            estimate D2E/DX2                !
 ! D91   D(40,22,23,24)        180.0            estimate D2E/DX2                !
 ! D92   D(40,22,23,42)          0.0            estimate D2E/DX2                !
 ! D93   D(20,22,40,38)          0.0            estimate D2E/DX2                !
 ! D94   D(20,22,40,41)        180.0            estimate D2E/DX2                !
 ! D95   D(23,22,40,38)        180.0            estimate D2E/DX2                !
 ! D96   D(23,22,40,41)          0.0            estimate D2E/DX2                !
 ! D97   D(22,23,24,25)        180.0            estimate D2E/DX2                !
 ! D98   D(22,23,24,26)          0.0            estimate D2E/DX2                !
 ! D99   D(42,23,24,25)          0.0            estimate D2E/DX2                !
 ! D100  D(42,23,24,26)        180.0            estimate D2E/DX2                !
 ! D101  D(22,23,42,41)          0.0            estimate D2E/DX2                !
 ! D102  D(24,23,42,41)        180.0            estimate D2E/DX2                !
 ! D103  D(23,24,26,19)          0.0            estimate D2E/DX2                !
 ! D104  D(23,24,26,27)        180.0            estimate D2E/DX2                !
 ! D105  D(25,24,26,19)        180.0            estimate D2E/DX2                !
 ! D106  D(25,24,26,27)          0.0            estimate D2E/DX2                !
 ! D107  D(19,26,27,17)          0.0            estimate D2E/DX2                !
 ! D108  D(19,26,27,28)        180.0            estimate D2E/DX2                !
 ! D109  D(24,26,27,17)        180.0            estimate D2E/DX2                !
 ! D110  D(24,26,27,28)          0.0            estimate D2E/DX2                !
 ! D111  D(17,27,28,16)          0.0            estimate D2E/DX2                !
 ! D112  D(17,27,28,29)        180.0            estimate D2E/DX2                !
 ! D113  D(26,27,28,16)        180.0            estimate D2E/DX2                !
 ! D114  D(26,27,28,29)          0.0            estimate D2E/DX2                !
 ! D115  D(1,30,31,16)         180.0            estimate D2E/DX2                !
 ! D116  D(1,30,31,32)           0.0            estimate D2E/DX2                !
 ! D117  D(17,30,31,16)          0.0            estimate D2E/DX2                !
 ! D118  D(17,30,31,32)        180.0            estimate D2E/DX2                !
 ! D119  D(16,31,32,5)         180.0            estimate D2E/DX2                !
 ! D120  D(16,31,32,11)          0.0            estimate D2E/DX2                !
 ! D121  D(30,31,32,5)           0.0            estimate D2E/DX2                !
 ! D122  D(30,31,32,11)        180.0            estimate D2E/DX2                !
 ! D123  D(34,33,35,36)          0.0            estimate D2E/DX2                !
 ! D124  D(34,33,35,37)        180.0            estimate D2E/DX2                !
 ! D125  D(62,33,35,36)        180.0            estimate D2E/DX2                !
 ! D126  D(62,33,35,37)          0.0            estimate D2E/DX2                !
 ! D127  D(34,33,62,49)          0.0            estimate D2E/DX2                !
 ! D128  D(34,33,62,63)        180.0            estimate D2E/DX2                !
 ! D129  D(35,33,62,49)        180.0            estimate D2E/DX2                !
 ! D130  D(35,33,62,63)          0.0            estimate D2E/DX2                !
 ! D131  D(33,35,37,38)        180.0            estimate D2E/DX2                !
 ! D132  D(33,35,37,64)          0.0            estimate D2E/DX2                !
 ! D133  D(36,35,37,38)          0.0            estimate D2E/DX2                !
 ! D134  D(36,35,37,64)        180.0            estimate D2E/DX2                !
 ! D135  D(35,37,38,39)          0.0            estimate D2E/DX2                !
 ! D136  D(35,37,38,40)        180.0            estimate D2E/DX2                !
 ! D137  D(64,37,38,39)        180.0            estimate D2E/DX2                !
 ! D138  D(64,37,38,40)          0.0            estimate D2E/DX2                !
 ! D139  D(35,37,64,43)        180.0            estimate D2E/DX2                !
 ! D140  D(35,37,64,63)          0.0            estimate D2E/DX2                !
 ! D141  D(38,37,64,43)          0.0            estimate D2E/DX2                !
 ! D142  D(38,37,64,63)        180.0            estimate D2E/DX2                !
 ! D143  D(37,38,40,22)        180.0            estimate D2E/DX2                !
 ! D144  D(37,38,40,41)          0.0            estimate D2E/DX2                !
 ! D145  D(39,38,40,22)          0.0            estimate D2E/DX2                !
 ! D146  D(39,38,40,41)        180.0            estimate D2E/DX2                !
 ! D147  D(22,40,41,42)          0.0            estimate D2E/DX2                !
 ! D148  D(22,40,41,43)        180.0            estimate D2E/DX2                !
 ! D149  D(38,40,41,42)        180.0            estimate D2E/DX2                !
 ! D150  D(38,40,41,43)          0.0            estimate D2E/DX2                !
 ! D151  D(40,41,42,23)          0.0            estimate D2E/DX2                !
 ! D152  D(43,41,42,23)        180.0            estimate D2E/DX2                !
 ! D153  D(40,41,43,44)        180.0            estimate D2E/DX2                !
 ! D154  D(40,41,43,64)          0.0            estimate D2E/DX2                !
 ! D155  D(42,41,43,44)          0.0            estimate D2E/DX2                !
 ! D156  D(42,41,43,64)        180.0            estimate D2E/DX2                !
 ! D157  D(41,43,44,45)          0.0            estimate D2E/DX2                !
 ! D158  D(41,43,44,46)        180.0            estimate D2E/DX2                !
 ! D159  D(64,43,44,45)        180.0            estimate D2E/DX2                !
 ! D160  D(64,43,44,46)          0.0            estimate D2E/DX2                !
 ! D161  D(41,43,64,37)          0.0            estimate D2E/DX2                !
 ! D162  D(41,43,64,63)        180.0            estimate D2E/DX2                !
 ! D163  D(44,43,64,37)        180.0            estimate D2E/DX2                !
 ! D164  D(44,43,64,63)          0.0            estimate D2E/DX2                !
 ! D165  D(43,44,46,47)        180.0            estimate D2E/DX2                !
 ! D166  D(43,44,46,48)          0.0            estimate D2E/DX2                !
 ! D167  D(45,44,46,47)          0.0            estimate D2E/DX2                !
 ! D168  D(45,44,46,48)        180.0            estimate D2E/DX2                !
 ! D169  D(44,46,48,60)        180.0            estimate D2E/DX2                !
 ! D170  D(44,46,48,63)          0.0            estimate D2E/DX2                !
 ! D171  D(47,46,48,60)          0.0            estimate D2E/DX2                !
 ! D172  D(47,46,48,63)        180.0            estimate D2E/DX2                !
 ! D173  D(46,48,60,59)        180.0            estimate D2E/DX2                !
 ! D174  D(46,48,60,61)          0.0            estimate D2E/DX2                !
 ! D175  D(63,48,60,59)          0.0            estimate D2E/DX2                !
 ! D176  D(63,48,60,61)        180.0            estimate D2E/DX2                !
 ! D177  D(46,48,63,62)        180.0            estimate D2E/DX2                !
 ! D178  D(46,48,63,64)          0.0            estimate D2E/DX2                !
 ! D179  D(60,48,63,62)          0.0            estimate D2E/DX2                !
 ! D180  D(60,48,63,64)        180.0            estimate D2E/DX2                !
 ! D181  D(59,49,50,51)          0.0            estimate D2E/DX2                !
 ! D182  D(62,49,50,51)        180.0            estimate D2E/DX2                !
 ! D183  D(50,49,59,58)          0.0            estimate D2E/DX2                !
 ! D184  D(50,49,59,60)        180.0            estimate D2E/DX2                !
 ! D185  D(62,49,59,58)        180.0            estimate D2E/DX2                !
 ! D186  D(62,49,59,60)          0.0            estimate D2E/DX2                !
 ! D187  D(50,49,62,33)          0.0            estimate D2E/DX2                !
 ! D188  D(50,49,62,63)        180.0            estimate D2E/DX2                !
 ! D189  D(59,49,62,33)        180.0            estimate D2E/DX2                !
 ! D190  D(59,49,62,63)          0.0            estimate D2E/DX2                !
 ! D191  D(49,50,51,52)        180.0            estimate D2E/DX2                !
 ! D192  D(49,50,51,58)          0.0            estimate D2E/DX2                !
 ! D193  D(50,51,52,53)          0.0            estimate D2E/DX2                !
 ! D194  D(50,51,52,54)        180.0            estimate D2E/DX2                !
 ! D195  D(58,51,52,53)        180.0            estimate D2E/DX2                !
 ! D196  D(58,51,52,54)          0.0            estimate D2E/DX2                !
 ! D197  D(50,51,58,56)        180.0            estimate D2E/DX2                !
[...]
       Atomic Center   71 is at   2.880531 -2.898355  0.000000
       Atomic Center   72 is at   0.619375 -2.644402  0.000000
       Atomic Center   73 is at  -0.686908 -3.145753  0.000000
       Atomic Center   74 is at  -1.590339 -2.219446  0.000000
       Atomic Center   75 is at  -0.900064 -4.581419  0.000000
       Atomic Center   76 is at  -2.163522 -5.131624  0.000000
       Atomic Center   77 is at  -3.020363 -4.469206  0.000000
       Atomic Center   78 is at  -2.326903 -6.523096  0.000000
       Atomic Center   79 is at  -3.315889 -6.965115  0.000000
       Atomic Center   80 is at  -1.234585 -7.361604  0.000000
       Atomic Center   81 is at   1.007136 -9.092556  0.000000
       Atomic Center   82 is at   1.910129-10.019569  0.000000
       Atomic Center   83 is at   1.217546-11.222146  0.000000
       Atomic Center   84 is at   1.744331-12.511641  0.000000
       Atomic Center   85 is at   2.804861-12.711191  0.000000
       Atomic Center   86 is at   0.799753-13.520566  0.000000
       Atomic Center   87 is at  -0.605272-13.292493  0.000000
       Atomic Center   88 is at  -1.127449-11.997899  0.000000
       Atomic Center   89 is at  -2.189397-11.806717  0.000000
       Atomic Center   90 is at  -0.179300-10.991268  0.000000
       Atomic Center   91 is at  -0.299661 -9.595173  0.000000
       Atomic Center   92 is at  -1.462784 -8.833124  0.000000
       Atomic Center   93 is at  -2.560846 -9.337917  0.000000
       Atomic Center   94 is at   1.221379 -7.658319  0.000000
       Atomic Center   95 is at   0.075706 -6.819994  0.000000
       Atomic Center   96 is at   0.246044 -5.418259  0.000000
       Atomic Center   97 is at   2.880963-19.310189  0.000000
       Atomic Center   98 is at   3.739523-19.970566  0.000000
       Atomic Center   99 is at   3.027716-17.943658  0.000000
       Atomic Center  100 is at   4.008021-17.483051  0.000000
       Atomic Center  101 is at   1.903927-17.099250  0.000000
       Atomic Center  102 is at   2.112410-15.659324  0.000000
       Atomic Center  103 is at   3.194640-15.095981  0.000000
       Atomic Center  104 is at   0.923760-14.906905 -0.000000
       Atomic Center  105 is at  -0.373663-15.418495  0.000000
       Atomic Center  106 is at  -1.294956-14.480394  0.000000
       Atomic Center  107 is at  -0.559320-16.835919  0.000000
       Atomic Center  108 is at  -1.842509-17.412001  0.000000
       Atomic Center  109 is at  -2.701134-16.751769  0.000000
       Atomic Center  110 is at  -1.988699-18.777594  0.000000
       Atomic Center  111 is at  -2.969483-19.237239  0.000000
       Atomic Center  112 is at  -0.865203-19.624701  0.000000
       Atomic Center  113 is at   1.413568-21.306218  0.000000
       Atomic Center  114 is at   2.333366-22.243869  0.000000
       Atomic Center  115 is at   1.633110-23.430158  0.000000
       Atomic Center  116 is at   2.114587-24.741107  0.000000
       Atomic Center  117 is at   3.182791-24.923635  0.000000
       Atomic Center  118 is at   1.194793-25.776703  0.000000
       Atomic Center  119 is at   1.546678-26.803275  0.000000
       Atomic Center  120 is at  -0.185455-25.527265 -0.000000
       Atomic Center  121 is at  -0.877052-26.362798  0.000000
       Atomic Center  122 is at  -0.687347-24.233028  0.000000
       Atomic Center  123 is at  -1.745712-24.016144  0.000000
       Atomic Center  124 is at   0.243429-23.201030  0.000000
       Atomic Center  125 is at   0.115767-21.816595  0.000000
       Atomic Center  126 is at  -1.073995-21.062003  0.000000
       Atomic Center  127 is at  -2.155955-21.627916  0.000000
       Atomic Center  128 is at   1.598976-19.884898  0.000000
       Atomic Center  129 is at   0.442427-19.071554  0.000000
       Atomic Center  130 is at   0.597821-17.651313  0.000000
       Atomic Center  131 is at  -1.529784 23.459296 -0.000000
       Atomic Center  132 is at  -2.006302 24.768600 -0.000000
       Atomic Center  133 is at  -1.076564 25.794560 -0.000000
       Atomic Center  134 is at   0.300579 25.530049 -0.000000
       Atomic Center  135 is at   0.795066 24.234232 -0.000000
       Atomic Center  136 is at  -0.147634 23.213261 -0.000000
       Atomic Center  137 is at  -3.072419 24.958913 -0.000000
       Atomic Center  138 is at  -1.416628 26.823957  0.000000
       Atomic Center  139 is at   0.998672 26.359326 -0.000000
       Atomic Center  140 is at   1.853005 24.016495  0.000000
   68102 points will be used for fitting atomic charges
 Fitting point charges to electrostatic potential
 Charges from ESP fit, RMS=   0.00530 RRMS=   0.05418:
 ESP charges:
               1
     1  C   -0.043317
     2  H    0.087805
     3  C   -0.034934
     4  H    0.108022
     5  C   -0.233562
     6  C    0.625322
     7  O   -0.498654
     8  N   -0.284547
     9  C    0.445221
    10  N   -0.593215
    11  C   -0.112575
    12  C   -0.043122
    13  H    0.097650
    14  C   -0.064843
    15  H    0.114798
    16  C   -0.142594
    17  C    0.325434
    18  N   -0.516947
    19  C    0.285522
    20  C   -0.276074
    21  H    0.195280
    22  C    0.073418
    23  C    0.324419
    24  C   -0.302818
    25  H    0.193048
    26  C   -0.006225
    27  N   -0.127848
    28  C    0.558396
    29  O   -0.487969
    30  C   -0.053756
    31  C    0.035155
    32  C    0.111366
    33  C   -0.044627
    34  H    0.069683
    35  C   -0.108758
    36  H    0.104559
    37  C   -0.215071
    38  C    0.552324
    39  O   -0.533905
    40  N   -0.219281
    41  C    0.413694
    42  N   -0.591114
    43  C   -0.153124
    44  C   -0.070301
    45  H    0.072389
    46  C   -0.061962
    47  H    0.086210
    48  C   -0.224900
    49  C    0.419109
    50  N   -0.590117
    51  C    0.310499
    52  C   -0.299405
    53  H    0.195484
    54  C    0.019620
    55  C    0.302047
    56  C   -0.298198
    57  H    0.200794
    58  C    0.076291
    59  N   -0.229919
    60  C    0.562458
    61  O   -0.527683
    62  C   -0.138646
    63  C    0.095678
    64  C    0.112546
    65  C   -0.010153
    66  H    0.079975
    67  C   -0.066673
    68  H    0.113284
    69  C   -0.188727
    70  C    0.593838
    71  O   -0.496012
    72  N   -0.198792
    73  C    0.408414
    74  N   -0.554676
    75  C   -0.114783
    76  C   -0.016111
    77  H    0.084129
    78  C   -0.080385
    79  H    0.117150
    80  C   -0.161943
    81  C    0.407159
    82  N   -0.541985
    83  C    0.272115
    84  C   -0.284097
    85  H    0.197609
    86  C    0.093170
    87  C    0.300293
    88  C   -0.304837
    89  H    0.197268
    90  C    0.027911
    91  N   -0.192129
    92  C    0.577452
    93  O   -0.494956
    94  C   -0.125868
    95  C    0.079848
    96  C    0.081596
    97  C   -0.086297
    98  H    0.078915
    99  C   -0.091575
   100  H    0.096991
   101  C   -0.235196
   102  C    0.589467
   103  O   -0.543878
   104  N   -0.261322
   105  C    0.443033
   106  N   -0.596241
   107  C   -0.174363
   108  C   -0.028785
   109  H    0.063135
   110  C   -0.131113
   111  H    0.104612
   112  C   -0.202845
   113  C    0.442281
   114  N   -0.627358
   115  C    0.333277
   116  C   -0.239746
   117  H    0.123707
   118  C   -0.129809
   119  H    0.088903
   120  C   -0.161628
   121  H    0.091764
   122  C   -0.193066
   123  H    0.148589
   124  C    0.157160
   125  N   -0.319045
   126  C    0.587674
   127  O   -0.547248
   128  C   -0.115092
   129  C    0.074148
   130  C    0.120565
   131  C    0.351561
   132  C   -0.235192
   133  C   -0.113686
   134  C   -0.134176
   135  C   -0.169688
   136  C    0.105834
   137  H    0.141489
   138  H    0.100272
   139  H    0.101787
   140  H    0.148871
 Sum of ESP charges =  -2.00000
 ESP charges with hydrogens summed into heavy atoms:
               1
     1  C    0.044489
     3  C    0.073088
     5  C   -0.233562
     6  C    0.625322
     7  O   -0.498654
     8  N   -0.284547
     9  C    0.445221
    10  N   -0.593215
    11  C   -0.112575
    12  C    0.054529
    14  C    0.049955
    16  C   -0.142594
    17  C    0.325434
    18  N   -0.516947
    19  C    0.285522
    20  C   -0.080793
    22  C    0.073418
    23  C    0.324419
    24  C   -0.109770
    26  C   -0.006225
    27  N   -0.127848
    28  C    0.558396
    29  O   -0.487969
    30  C   -0.053756
    31  C    0.035155
    32  C    0.111366
    33  C    0.025056
    35  C   -0.004199
    37  C   -0.215071
    38  C    0.552324
    39  O   -0.533905
    40  N   -0.219281
    41  C    0.413694
    42  N   -0.591114
    43  C   -0.153124
    44  C    0.002088
    46  C    0.024248
    48  C   -0.224900
    49  C    0.419109
    50  N   -0.590117
    51  C    0.310499
    52  C   -0.103921
    54  C    0.019620
    55  C    0.302047
    56  C   -0.097404
    58  C    0.076291
    59  N   -0.229919
    60  C    0.562458
    61  O   -0.527683
    62  C   -0.138646
    63  C    0.095678
    64  C    0.112546
    65  C    0.069822
    67  C    0.046611
    69  C   -0.188727
    70  C    0.593838
    71  O   -0.496012
    72  N   -0.198792
    73  C    0.408414
    74  N   -0.554676
    75  C   -0.114783
    76  C    0.068019
    78  C    0.036765
    80  C   -0.161943
    81  C    0.407159
    82  N   -0.541985
    83  C    0.272115
    84  C   -0.086488
    86  C    0.093170
    87  C    0.300293
    88  C   -0.107569
    90  C    0.027911
    91  N   -0.192129
    92  C    0.577452
    93  O   -0.494956
    94  C   -0.125868
    95  C    0.079848
    96  C    0.081596
    97  C   -0.007381
    99  C    0.005416
   101  C   -0.235196
   102  C    0.589467
   103  O   -0.543878
   104  N   -0.261322
   105  C    0.443033
   106  N   -0.596241
   107  C   -0.174363
   108  C    0.034350
   110  C   -0.026501
   112  C   -0.202845
   113  C    0.442281
   114  N   -0.627358
   115  C    0.333277
   116  C   -0.116038
   118  C   -0.040906
   120  C   -0.069865
   122  C   -0.044477
   124  C    0.157160
   125  N   -0.319045
   126  C    0.587674
   127  O   -0.547248
   128  C   -0.115092
   129  C    0.074148
   130  C    0.120565
   131  C    0.351561
   132  C   -0.093702
   133  C   -0.013414
   134  C   -0.032389
   135  C   -0.020816
   136  C    0.105834
 Charge=  -2.00000 Dipole=    -1.1327    47.0698     0.0000 Tot=    47.0835
 -----------------------------------------------------------------

              Electrostatic Properties (Atomic Units)

 -----------------------------------------------------------------
    Center     Electric         -------- Electric Field --------
               Potential          X             Y             Z
 -----------------------------------------------------------------
    1 Atom    -14.814854
    2 Atom     -1.153762
    3 Atom    -14.805713
    4 Atom     -1.146658
    5 Atom    -14.801369
    6 Atom    -14.697440
    7 Atom    -22.435351
    8 Atom    -18.373845
    9 Atom    -14.742594
   10 Atom    -18.460796
   11 Atom    -14.791586
   12 Atom    -14.805823
   13 Atom     -1.145222
   14 Atom    -14.809377
   15 Atom     -1.148998
   16 Atom    -14.799611
   17 Atom    -14.768268
   18 Atom    -18.477579
   19 Atom    -14.828196
   20 Atom    -14.856555
   21 Atom     -1.190143
   22 Atom    -14.825735
   23 Atom    -14.834839
   24 Atom    -14.859239
   25 Atom     -1.188910
   26 Atom    -14.810832
   27 Atom    -18.394844
   28 Atom    -14.712019
   29 Atom    -22.450715
   30 Atom    -14.793875
   31 Atom    -14.795117
   32 Atom    -14.792053
   33 Atom    -14.876656
   34 Atom     -1.211592
   35 Atom    -14.876200
   36 Atom     -1.211509
   37 Atom    -14.869442
   38 Atom    -14.768015
   39 Atom    -22.506513
   40 Atom    -18.430534
   41 Atom    -14.802725
   42 Atom    -18.522628
   43 Atom    -14.864653
   44 Atom    -14.876918
   45 Atom     -1.211414
   46 Atom    -14.876927
   47 Atom     -1.212568
   48 Atom    -14.871361
   49 Atom    -14.806951
   50 Atom    -18.527111
   51 Atom    -14.845952
   52 Atom    -14.869850
   53 Atom     -1.200254
   54 Atom    -14.825365
   55 Atom    -14.841256
   56 Atom    -14.868407
   57 Atom     -1.201289
   58 Atom    -14.835028
   59 Atom    -18.436200
   60 Atom    -14.770556
   61 Atom    -22.509133
   62 Atom    -14.864199
   63 Atom    -14.854862
   64 Atom    -14.853604
   65 Atom    -14.838016
   66 Atom     -1.176944
   67 Atom    -14.834241
   68 Atom     -1.174313
   69 Atom    -14.827905
   70 Atom    -14.732195
   71 Atom    -22.470695
   72 Atom    -18.413176
   73 Atom    -14.783343
   74 Atom    -18.497817
   75 Atom    -14.820085
   76 Atom    -14.836817
   77 Atom     -1.175865
   78 Atom    -14.834665
   79 Atom     -1.174567
   80 Atom    -14.827589
   81 Atom    -14.786890
   82 Atom    -18.499941
   83 Atom    -14.846173
   84 Atom    -14.873526
   85 Atom     -1.206501
   86 Atom    -14.841446
   87 Atom    -14.851735
   88 Atom    -14.875573
   89 Atom     -1.205529
   90 Atom    -14.829596
   91 Atom    -18.415808
   92 Atom    -14.733951
   93 Atom    -22.472512
   94 Atom    -14.820391
   95 Atom    -14.821483
   96 Atom    -14.821088
   97 Atom    -14.886658
   98 Atom     -1.220532
   99 Atom    -14.886532
  100 Atom     -1.221356
  101 Atom    -14.881057
  102 Atom    -14.779768
  103 Atom    -22.518359
  104 Atom    -18.444058
  105 Atom    -14.815752
  106 Atom    -18.536308
  107 Atom    -14.875944
  108 Atom    -14.887506
  109 Atom     -1.221736
  110 Atom    -14.887054
  111 Atom     -1.221933
  112 Atom    -14.881863
  113 Atom    -14.816416
  114 Atom    -18.535992
  115 Atom    -14.859170
  116 Atom    -14.880416
  117 Atom     -1.207655
  118 Atom    -14.877135
  119 Atom     -1.207517
  120 Atom    -14.879243
  121 Atom     -1.209466
  122 Atom    -14.878179
  123 Atom     -1.212872
  124 Atom    -14.847242
  125 Atom    -18.444411
  126 Atom    -14.780195
  127 Atom    -22.518567
  128 Atom    -14.875020
  129 Atom    -14.864831
  130 Atom    -14.864622
  131 Atom    -14.796684
  132 Atom    -14.822123
  133 Atom    -14.822563
  134 Atom    -14.821862
  135 Atom    -14.819480
  136 Atom    -14.782377
  137 Atom     -1.151922
  138 Atom     -1.156135
  139 Atom     -1.156393
  140 Atom     -1.154430
 -----------------------------------------------------------------
 Leave Link  602 at Sat Sep 30 14:41:58 2023, MaxMem= 26843545600 cpu:              76.7 elap:               4.9
 (Enter /share/software/user/restricted/gaussian/g16.B01/l9999.exe)
 1\1\GINC-SH03-01N56\FOpt\UwB97XD\6-311G(d,p)\C86H30N16O8(2-,3)\NSIEMON
 S\30-Sep-2023\0\\#p opt uwB97XD/6-311(d,p) Geom=AllCheck guess=read po
 p=chelpg\\01_42\\-2,3\C,17.3040717654,-2.2583440103,0.\H,16.6146430329
 ,-3.0932096726,0.\C,18.6857237155,-2.4632563954,0.\H,19.0934295879,-3.
 4670901932,0.\C,19.5645676388,-1.3976926865,0.\C,21.0157069616,-1.6696
 897237,0.\O,21.5119456268,-2.7714559595,0.\N,21.8182940211,-0.51784240
 96,0.\C,21.3619513002,0.8002056505,0.\N,22.3200230334,1.6755039917,0.\
 C,19.931923592,1.0531511251,0.\C,19.4210490034,2.3328410835,0.\H,20.10
 85333232,3.1698494249,0.\C,18.035769214,2.5392888019,0.\H,17.621294154
 ,3.5398728731,0.\C,17.1686451717,1.4697188672,0.\C,15.3724525557,-0.71
 3914127,0.\N,14.4148311929,-1.5883184594,0.\C,13.2378851696,-0.8645182
 266,0.\C,11.9311125793,-1.3549723188,0.\H,11.7002127906,-2.4091423568,
 0.\C,10.952800814,-0.3828943034,0.\C,11.2199728999,1.0191483913,0.\C,1
 2.5315632829,1.5043556413,0.\H,12.7519244664,2.5605924702,0.\C,13.5076
 084916,0.527712058,0.\N,14.9070176618,0.6077836122,0.\C,15.7007606285,
 1.744064061,0.\O,15.2382957627,2.8602295994,0.\C,16.7924481738,-0.9744
 018954,0.\C,17.6696146242,0.1443597686,0.\C,19.0657280221,-0.069417069
 2,0.\C,5.110396571,-2.300914612,0.\H,4.4257762291,-3.1401704267,0.\C,6
 .4730628883,-2.4868063391,0.\H,6.9047082617,-3.4800729187,0.\C,7.34823
 7596,-1.387435688,0.\C,8.7815219443,-1.635725419,0.\O,9.318402014,-2.7
 312311513,0.\N,9.5645754889,-0.4666260456,0.\C,9.0893314586,0.84365448
 71,0.\N,10.0585857575,1.7393553487,0.\C,7.6824806077,1.0692038635,0.\C
 ,7.1404875257,2.3676087438,0.\H,7.8222378483,3.2091057112,0.\C,5.77871
 2962,2.5495257515,0.\H,5.3451568095,3.5420859042,0.\C,4.9035542205,1.4
 500515847,0.\C,3.1576023772,-0.7786779616,0.\N,2.1996391624,-1.6735105
 063,0.\C,1.0270273134,-0.9518460002,0.\C,-0.2792186443,-1.4410530015,0
 .\H,-0.4982120709,-2.4976239825,0.\C,-1.2610302095,-0.4670042954,0.\C,
 -0.9930215456,0.9231773731,0.\C,0.3085561305,1.4162525168,0.\H,0.53442
 54984,2.4714696508,0.\C,1.2929923387,0.4446557527,0.\N,2.6824627607,0.
 5314683268,0.\C,3.4690303127,1.6987147805,0.\O,2.9384925265,2.79581443
 24,0.\C,4.5740822295,-1.0045324781,0.\C,5.4203068485,0.1286331706,0.\C
 ,6.8345132548,-0.0668497611,0.\C,-7.1684993523,-2.3020708657,0.\H,-7.8
 526722886,-3.1415677735,0.\C,-5.7820998798,-2.5006303744,0.\H,-5.36621
 87514,-3.5009583511,0.\C,-4.9145884129,-1.430567257,0.\C,-3.4514533635
 ,-1.6957966427,0.\O,-2.9705532645,-2.8045089467,0.\N,-2.6590194844,-0.
 5505644837,0.\C,-3.1268950547,0.7680783351,0.\N,-2.177850811,1.6475937
 428,0.\C,-4.5566588674,1.0177774618,0.\C,-5.0744644678,2.2948560993,0.
 \H,-4.390410833,3.1345256039,0.\C,-6.4613174121,2.4936688769,0.\H,-6.8
 779718,3.4936048927,0.\C,-7.3274082131,1.4230888753,0.\C,-9.1149648711
 ,-0.773761144,0.\N,-10.064705051,-1.6528192006,0.\C,-11.2492285983,-0.
 929794089,0.\C,-12.5517380898,-1.4235240508,0.\H,-12.778268181,-2.4786
 194692,0.\C,-13.5362466651,-0.4535230645,0.\C,-13.2724169429,0.9452285
 948,0.\C,-11.9649275913,1.4342215881,0.\H,-11.7467261332,2.4909480728,
 0.\C,-10.9828036636,0.4607094337,0.\N,-9.5840929194,0.5454288966,0.\C,
 -8.7926304611,1.6887404733,0.\O,-9.269257232,2.7993177538,0.\C,-7.6866
 584365,-1.0245098046,0.\C,-6.8193896333,0.0994124066,0.\C,-5.422454472
 2,-0.1066167357,0.\C,-19.3770607948,-2.3864113212,0.\H,-20.0591178377,
 -3.2278510874,0.\C,-18.0147165611,-2.5679653854,0.\H,-17.5792586408,-3
 .5596975983,0.\C,-17.1419251469,-1.4660763216,0.\C,-15.7077839399,-1.7
 112114597,0.\O,-15.1722230127,-2.8074556816,0.\N,-14.9252973683,-0.542
 13638,0.\C,-15.4036341679,0.7679109593,0.\N,-14.4423442815,1.664981582
 ,0.\C,-16.8158626983,0.989654625,0.\C,-17.3590339163,2.287117232,0.\H,
 -16.6771202794,3.1286265581,0.\C,-18.7204549469,2.468084479,0.\H,-19.1
 549383801,3.4602711165,0.\C,-19.5959371172,1.366556578,0.\C,-21.335020
 2938,-0.868591809,0.\N,-22.2958222245,-1.7641791216,0.\C,-23.463867486
 5,-1.033898383,0.\C,-24.7866685631,-1.4817874143,0.\H,-24.9963789327,-
 2.5449892247,0.\C,-25.7984718939,-0.5358824461,0.\H,-26.8336840023,-0.
 8614740245,0.\C,-25.5139165097,0.8375550888,0.\H,-26.3315410614,1.5502
 344384,0.\C,-24.2073007109,1.3062786692,0.\H,-23.9634976925,2.35876834
 59,0.\C,-23.1993748371,0.3494878249,0.\N,-21.8121348688,0.4418031078,0
 .\C,-21.0274475692,1.611934936,0.\O,-21.5655848029,2.7079747101,0.\C,-
 19.9188898268,-1.0901855793,0.\C,-19.0763165747,0.0452455393,0.\C,-17.
 6605004518,-0.1463161462,0.\C,23.4909957553,0.9322074166,0.\C,24.81202
 57738,1.3751801545,0.\C,25.8139430111,0.4195815188,0.\C,25.5143984717,
 -0.9503684499,0.\C,24.2063921145,-1.4116485877,0.\C,23.2097941566,-0.4
 432190716,0.\H,25.0294648519,2.4360978854,0.\H,26.851677352,0.73328323
 79,0.\H,26.3256032361,-1.6693821621,0.\H,23.9617471438,-2.4636916264,0
 .\\Version=ES64L-G16RevB.01\State=3-A'\HF=-4773.0982301\S2=2.062961\S2
 -1=0.\S2A=2.002712\RMSD=4.345e-09\RMSF=1.771e-05\Dipole=18.5798523,-0.
 0274283,0.\Quadrupole=-1061.7748163,511.93981,549.8350063,10.0217546,0
 .,0.\PG=CS [SG(C86H30N16O8)]\\@


 KEEP CLOSE TO NATURES HEART, YOURSELF;
 AND BREAK CLEAR AWAY, ONCE IN A WHILE, AND
 CLIMB A MOUNTAIN OR SPEND A WEEK IN THE
 WOODS.  WASH YOUR SPIRIT CLEAN...
                                         -- JOHN MUIR
 Job cpu time:       1 days  1 hours 15 minutes 52.2 seconds.
 Elapsed time:       0 days  1 hours 35 minutes 59.2 seconds.
 File lengths (MBytes):  RWF=   4413 Int=      0 D2E=      0 Chk=    863 Scr=      1
 Normal termination of Gaussian 16 at Sat Sep 30 14:42:04 2023.
