 Entering Gaussian System, Link 0=g16
 Input=step2.gjf
 Output=step2.log
 Initial command:
 /apps/gaussian/g16-c01-avx2/g16/l1.exe "/rds/general/ephemeral/user/ns5018/ephemeral/0012/001/Gau-1698976.inp" -scrdir="/rds/general/ephemeral/user/ns5018/ephemeral/0012/001/"
 Entering Link 1 = /apps/gaussian/g16-c01-avx2/g16/l1.exe PID=   1698978.
  
 Copyright (c) 1988-2019, Gaussian, Inc.  All Rights Reserved.
  
 This is part of the Gaussian(R) 16 program.  It is based on
 the Gaussian(R) 09 system (copyright 2009, Gaussian, Inc.),
 the Gaussian(R) 03 system (copyright 2003, Gaussian, Inc.),
 the Gaussian(R) 98 system (copyright 1998, Gaussian, Inc.),
 the Gaussian(R) 94 system (copyright 1995, Gaussian, Inc.),
 the Gaussian 92(TM) system (copyright 1992, Gaussian, Inc.),
 the Gaussian 90(TM) system (copyright 1990, Gaussian, Inc.),
 the Gaussian 88(TM) system (copyright 1988, Gaussian, Inc.),
 the Gaussian 86(TM) system (copyright 1986, Carnegie Mellon
 University), and the Gaussian 82(TM) system (copyright 1983,
 Carnegie Mellon University). Gaussian is a federally registered
 trademark of Gaussian, Inc.
  
 This software contains proprietary and confidential information,
 including trade secrets, belonging to Gaussian, Inc.
  
 This software is provided under written license and may be
 used, copied, transmitted, or stored only in accord with that
 written license.
  
 The following legend is applicable only to US Government
 contracts under FAR:
  
                    RESTRICTED RIGHTS LEGEND
  
 Use, reproduction and disclosure by the US Government is
 subject to restrictions as set forth in subparagraphs (a)
 and (c) of the Commercial Computer Software - Restricted
 Rights clause in FAR 52.227-19.
  
 Gaussian, Inc.
 340 Quinnipiac St., Bldg. 40, Wallingford CT 06492
  
  
 ---------------------------------------------------------------
 Warning -- This program may not be used in any manner that
 competes with the business of Gaussian, Inc. or will provide
 assistance to any competitor of Gaussian, Inc.  The licensee
 of this program is prohibited from giving any competitor of
 Gaussian, Inc. access to this program.  By using this program,
 the user acknowledges that Gaussian, Inc. is engaged in the
 business of creating and licensing software in the field of
 computational chemistry and represents and warrants to the
 licensee that it is not a competitor of Gaussian, Inc. and that
 it will not use this program in any manner prohibited above.
 ---------------------------------------------------------------
  

 Cite this work as:
 Gaussian 16, Revision C.01,
 M. J. Frisch, G. W. Trucks, H. B. Schlegel, G. E. Scuseria, 
 M. A. Robb, J. R. Cheeseman, G. Scalmani, V. Barone, 
 G. A. Petersson, H. Nakatsuji, X. Li, M. Caricato, A. V. Marenich, 
 J. Bloino, B. G. Janesko, R. Gomperts, B. Mennucci, H. P. Hratchian, 
 J. V. Ortiz, A. F. Izmaylov, J. L. Sonnenberg, D. Williams-Young, 
 F. Ding, F. Lipparini, F. Egidi, J. Goings, B. Peng, A. Petrone, 
 T. Henderson, D. Ranasinghe, V. G. Zakrzewski, J. Gao, N. Rega, 
 G. Zheng, W. Liang, M. Hada, M. Ehara, K. Toyota, R. Fukuda, 
 J. Hasegawa, M. Ishida, T. Nakajima, Y. Honda, O. Kitao, H. Nakai, 
 T. Vreven, K. Throssell, J. A. Montgomery, Jr., J. E. Peralta, 
 F. Ogliaro, M. J. Bearpark, J. J. Heyd, E. N. Brothers, K. N. Kudin, 
 V. N. Staroverov, T. A. Keith, R. Kobayashi, J. Normand, 
 K. Raghavachari, A. P. Rendell, J. C. Burant, S. S. Iyengar, 
 J. Tomasi, M. Cossi, J. M. Millam, M. Klene, C. Adamo, R. Cammi, 
 J. W. Ochterski, R. L. Martin, K. Morokuma, O. Farkas, 
 J. B. Foresman, and D. J. Fox, Gaussian, Inc., Wallingford CT, 2019.
 
 ******************************************
 Gaussian 16:  ES64L-G16RevC.01  3-Jul-2019
                17-Feb-2024 
 ******************************************
 %mem=200GB
 %nprocshared=32
 Will use up to   32 processors via shared memory.
 %Chk=checkpoint.chk
 ----------------------------------------------------
 #p wB97XD/6-311(d,p) Geom=AllCheck guess=read stable
 ----------------------------------------------------
 1/29=7,38=1,172=1/1;
 2/12=2,40=1/2;
 3/5=4,6=6,7=101,11=2,14=-4,25=1,30=1,74=-58,116=-2/1,2,3;
 4/5=1/1;
 5/5=2,38=6/2;
 8/6=1,10=90,11=11/1;
 9/8=-1,42=1/14;
 6/7=2,8=2,9=2,10=2,28=1/1;
 99/5=1,9=1/99;
 Leave Link    1 at Sat Feb 17 21:20:52 2024, MaxMem= 26843545600 cpu:               8.0 elap:               0.3
 (Enter /apps/gaussian/g16-c01-avx2/g16/l101.exe)
 Structure from the checkpoint file:  "checkpoint.chk"
 ---
 001
 ---
 Charge =  0 Multiplicity = 1
 Redundant internal coordinates found in file.  (old form).
 C,0,6.5676900488,-1.045900725,-0.1261396186
 H,0,7.0678400956,-0.0855499477,-0.1515518404
 C,0,5.1661313037,-1.1270652112,-0.1235774753
 H,0,4.5584538672,-0.2308193437,-0.1470669523
 C,0,4.5402259637,-2.3505969758,-0.0906317807
 C,0,3.0498561843,-2.388521476,-0.087935221
 O,0,2.3531969573,-1.4056651576,-0.1137121575
 N,0,2.507865804,-3.6738845422,-0.0520783686
 C,0,3.2328786302,-4.8696527324,-0.021278177
 N,0,2.4839240341,-5.9227190847,0.0092901763
 C,0,4.6840506934,-4.8213744623,-0.0249759438
 C,0,5.4481957601,-5.9672807703,0.0048317559
 H,0,4.9488059946,-6.9279288258,0.0307763467
 C,0,6.8466112071,-5.8862715442,0.0020197292
 H,0,7.45366203,-6.7828372437,0.0257746235
 C,0,7.4732082637,-4.6598231126,-0.0305288836
 C,0,8.920215884,-4.5403328392,-0.0326775943
 N,0,9.7855442338,-5.5001463709,-0.0058339323
 C,0,11.0292637025,-4.8815083204,-0.019747295
 C,0,12.2808736785,-5.4790318937,-0.0003278211
 H,0,12.4057294089,-6.5527188579,0.0286864567
 C,0,13.3619723763,-4.6102400192,-0.0196052118
 C,0,13.1806224401,-3.2070432561,-0.057090088
 C,0,11.9437704143,-2.580139507,-0.0775816808
 H,0,11.8193183027,-1.5099163314,-0.1058254833
 C,0,10.8837809334,-3.4741404614,-0.0572296737
 N,0,9.502438252,-3.26899026,-0.0654425942
 C,0,8.8155571575,-2.0547140124,-0.0985517087
 O,0,9.3941117825,-0.9980647931,-0.1262954344
 C,0,7.3307365121,-2.1890277225,-0.0958403026
 C,0,6.7116461062,-3.4647090723,-0.0621043556
 C,0,5.3024604719,-3.5463417208,-0.0593648347
 C,0,18.2071066015,0.389457284,-0.122811768
 H,0,18.5929078072,1.4012310298,-0.1462461549
 C,0,16.8243234653,0.1468350149,-0.125540007
 H,0,16.1171464613,0.9667856324,-0.1510293777
 C,0,16.3439545504,-1.1408922363,-0.0953066085
 C,0,14.8679378364,-1.3508909946,-0.0981922147
 O,0,14.0623505689,-0.4552045843,-0.1260343837
 N,0,14.4780280137,-2.6903858912,-0.0651387684
 C,0,15.3364478753,-3.7941954787,-0.0322872444
 N,0,14.7144628622,-4.926967687,-0.0055314792
 C,0,16.7722623478,-3.5784483213,-0.0299649632
 C,0,17.6635740083,-4.6283800867,0.002679696
 H,0,17.2784637976,-5.6403219706,0.026379286
 C,0,19.0432639008,-4.3863235036,0.0056564197
 H,0,19.7497643227,-5.2067400079,0.0316763463
 C,0,19.5240652399,-3.0956448245,-0.0240824906
 C,0,20.9475887206,-2.8096267651,-0.0202177308
 N,0,21.9182042375,-3.6627261758,0.0104558391
 C,0,23.0820102022,-2.9041669014,0.0015228948
 C,0,24.3943975657,-3.3525379108,0.0261558494
 H,0,24.6428014715,-4.4045119955,0.0559332323
 C,0,25.3675525582,-2.3642549738,0.0108544672
 C,0,25.0248996462,-0.9915781379,-0.0279013946
 C,0,23.7238050395,-0.5123499653,-0.0535795492
 H,0,23.4759533091,0.5361352711,-0.082868133
 C,0,22.7745976205,-1.5232041624,-0.0370755427
 N,0,21.3788577424,-1.4793973875,-0.0509589433
 C,0,20.5563768446,-0.3527075901,-0.0868889663
 O,0,21.0089060437,0.7637880207,-0.1126229132
 C,0,19.0970741084,-0.6577965606,-0.0897672887
 C,0,18.62957124,-1.9965445875,-0.0585671878
 C,0,17.239258712,-2.240465043,-0.0614736568
 C,0,29.5988235132,3.1646178087,-0.0803970714
 H,0,29.8646334028,4.2143120418,-0.103665869
 C,0,28.2537652728,2.7628178727,-0.0864058745
 H,0,27.4560048024,3.4948563571,-0.1143524179
 C,0,27.9265763785,1.4279180166,-0.0565737162
 C,0,26.4851531184,1.047796849,-0.0636085533
 O,0,25.5809739854,1.8437738253,-0.0941022666
 N,0,26.253553942,-0.3279143001,-0.031415699
 C,0,27.2342124948,-1.3246694744,0.0049139639
 N,0,26.7476523507,-2.5219453393,0.02994156
 C,0,28.6352492672,-0.9433789902,0.0116243669
 C,0,29.6427114179,-1.8823101011,0.0475158289
 H,0,29.3780343226,-2.9322200022,0.0708408439
 C,0,30.9849427694,-1.4813612687,0.0539304707
 H,0,31.7819083144,-2.2141324529,0.0823966232
 C,0,31.31256505,-0.1435546219,0.0243012581
 C,0,32.6931930327,0.3065805107,0.030880712
 N,0,33.7570589654,-0.4269234951,0.0640232
 C,0,34.824241845,0.4627020778,0.0560201605
 C,0,36.1804079179,0.171602088,0.0827828812
 H,0,36.5505417566,-0.8439225433,0.1140574008
 C,0,37.0310128459,1.2672856286,0.0672356742
 C,0,36.5292606593,2.590032006,0.0262894933
 C,0,35.1810906781,2.9131398115,-0.0012009563
 H,0,34.8122374984,3.925238181,-0.0321135615
 C,0,34.3571324155,1.7979743777,0.0155369396
 N,0,32.9659638684,1.67814125,-0.0004431746
 C,0,32.0179287342,2.7011072994,-0.0387134816
 O,0,32.3369402305,3.862855546,-0.0642783167
 C,0,30.6043548166,2.2279336986,-0.0444483551
 C,0,30.2960476963,0.8438614265,-0.0132890947
 C,0,28.9435678248,0.4398865725,-0.0195493768
 C,0,40.5774830634,7.2580999949,-0.0315676179
 H,0,40.7168795056,8.3318533162,-0.0568255842
 C,0,39.2898473071,6.6994994857,-0.0372101921
 H,0,38.4105158068,7.331140961,-0.066942304
 C,0,39.1238775945,5.3351900073,-0.0049140613
 C,0,37.7379390712,4.7871045805,-0.0120034147
 O,0,36.7457605965,5.4703252472,-0.0445500205
 N,0,37.6709565769,3.3938067981,0.0226641089
 C,0,38.7624861084,2.5197567982,0.0612133178
 N,0,38.4202444496,1.2734681343,0.0877227714
 C,0,40.1085543024,3.064620459,0.0679869567
 C,0,41.2207268168,2.2525742006,0.1059618121
 H,0,41.082987105,1.1786297357,0.1311712622
 C,0,42.5060364936,2.8102706126,0.1118570763
 H,0,43.384465839,2.1774889697,0.1418039339
 C,0,42.6729183758,4.1773225033,0.0796774582
 C,0,43.990190987,4.7894091339,0.0848634825
 N,0,45.1363158001,4.189448152,0.1183192304
 C,0,46.0836605548,5.205766248,0.1074281818
 C,0,47.4725453375,5.1093607724,0.1318642451
 H,0,47.9512239262,4.1387460707,0.1641846137
 C,0,48.199745508,6.2876076777,0.1133411615
 H,0,49.2825418086,6.247234194,0.1314884531
 C,0,47.5640137774,7.5363131432,0.0714302985
 H,0,48.1673003554,8.4364305974,0.0580411238
 C,0,46.1818093185,7.6527982842,0.0465694948
 H,0,45.6821127182,8.6098384736,0.0142665955
 C,0,45.4648446069,6.4637928171,0.065517453
 N,0,44.0967359901,6.1831191831,0.0510085994
 C,0,43.0345617146,7.0854156068,0.0111736683
 O,0,43.2120886983,8.2774264981,-0.0165713608
 C,0,41.6871073701,6.4475053236,0.0064045724
 C,0,41.5457228405,5.0365539098,0.0401668403
 C,0,40.2507393381,4.4747463578,0.0343614245
 C,0,-25.3796634852,-2.2689458593,0.1094062056
 C,0,-25.0474317702,-0.9076735306,0.0675708324
 C,0,-24.401479265,-3.2488603652,0.1280006925
 C,0,-23.7288435161,-0.4771284468,0.0428869429
 C,0,-23.0717577065,-2.8363215497,0.1037387248
 C,0,-22.758151825,-1.4698687514,0.061904876
 C,0,-20.9386148367,-2.7611541793,0.0814159352
 N,0,-21.9164760949,-3.6081282225,0.1147534511
 C,0,-20.53536792,-0.3071193025,0.0078218766
 N,0,-21.362146371,-1.4290900931,0.0475397473
 C,0,-19.5160380594,-3.0546166266,0.0763709629
 C,0,-19.0398986474,-4.3468932249,0.1085720112
 O,0,-20.9816944358,0.8123425365,-0.0199603842
 C,0,-19.0774869996,-0.6187926739,0.0031892824
 C,0,-18.6160953701,-1.9596479347,0.0369735069
 C,0,-17.6609125652,-4.5947561456,0.1028114211
 C,0,-18.1834919234,0.4248047805,-0.0346728484
 C,0,-17.2267469902,-2.2092914584,0.0313058661
 C,0,-16.7647651553,-3.5491549547,0.0649500049
 C,0,-16.8020262935,0.1766009792,-0.0401756225
 H,0,-24.6446430514,-4.3034188986,0.1602813123
 C,0,-16.327407987,-1.1132141295,-0.0078548417
 C,0,-15.3295857672,-3.7705860201,0.0583101433
 C,0,-14.8526789429,-1.3286292432,-0.0147855006
 H,0,-23.4620709353,0.5690387705,0.0106349767
 C,0,-13.1720794231,-3.1897100131,0.0235984337
 C,0,-6.5584305584,-1.0400784951,-0.0824112147
 C,0,-11.9340297963,-2.5658492084,-0.0037620866
 N,0,-14.4677557119,-2.6693763134,0.0198660441
 C,0,-13.3569066401,-4.5922984586,0.0644909506
 C,0,-8.8066215709,-2.0463489725,-0.0409894078
 C,0,-5.157059638,-1.1224973295,-0.088280888
 O,0,-14.0437578461,-0.4359590236,-0.0472699065
 O,0,-9.3837130012,-0.9888060863,-0.0665575405
 N,0,-14.7104829049,-4.9050797862,0.0848451188
 C,0,-7.3221848032,-2.1825104866,-0.0465711967
 C,0,-10.8761567493,-3.4621761603,0.0130483888
 C,0,-12.2775665358,-5.4635514608,0.0801134408
 C,0,-11.0243895326,-4.8690069414,0.0534807723
 C,0,-4.5322769732,-2.3466921002,-0.0584197631
 H,0,-19.7496811091,-5.1643700426,0.1384293388
 C,0,-6.7044983181,-3.4589027413,-0.0153819303
 C,0,-8.914380723,-4.531936347,0.0285464642
 N,0,-9.4946118157,-3.259566837,-0.0028012621
 C,0,-3.0420920074,-2.3858973193,-0.0653123635
 C,0,-5.2954062481,-3.5417361487,-0.0215023115
 O,0,-2.3446958436,-1.4036753601,-0.0956829875
 C,0,-7.4673016367,-4.65323254,0.0221034257
 N,0,-9.7815380607,-5.4899980027,0.0615813067
 H,0,-18.5655722599,1.4379135444,-0.0599503821
 C,0,-4.6778959753,-4.8173323083,0.0097031874
 C,0,-6.8414317228,-5.8801611457,0.0517664053
 H,0,-17.2803995604,-5.6084284411,0.1280357229
 C,0,-3.2267496987,-4.8669466731,0.0031435949
 C,0,-5.4430124047,-5.9623996409,0.0454906735
 N,0,-2.5009855326,-3.6717532353,-0.0330895114
 H,0,-16.0911113226,0.9931797063,-0.069815602
 H,0,-7.0580220587,-0.0793915524,-0.1057069928
 H,0,-11.8072729928,-1.4961155658,-0.0346345501
 H,0,-4.5485711188,-0.2269239503,-0.1161440075
 N,0,-2.4784303071,-5.920621102,0.0282313773
 H,0,-12.4047830134,-6.5369112411,0.1113475859
 H,0,-7.4489865382,-6.7762595179,0.0801518865
 H,0,-4.9444609702,-6.9235538996,0.0688448147
 C,0,1.1594251001,-4.0368101478,-0.0383514609
 C,0,1.1771084337,-5.451466197,0.0002221895
 C,0,0.0035818857,-3.2707533456,-0.0549682158
 C,0,-1.15282593,-4.0357609469,-0.0294313566
 C,0,-1.1713432647,-5.450438674,0.0092953705
 C,0,0.0026296808,-6.1890350536,0.0247113108
 H,0,0.0042205585,-2.1933708253,-0.0842370586
 H,0,0.002252573,-7.2699397259,0.0544679163
 H,0,-25.8411769,-0.1700161862,0.0541059807
 H,0,-26.4243273664,-2.5567199766,0.1274116262
 Recover connectivity data from disk.
 ITRead=  0  0  0  0  0  0  0  0  0  0  0  0  0  0  0  0  0  0  0  0
 ITRead=  0  0  0  0  0  0  0  0  0  0  0  0  0  0  0  0  0  0  0  0
 ITRead=  0  0  0  0  0  0  0  0  0  0  0  0  0  0  0  0  0  0  0  0
 ITRead=  0  0  0  0  0  0  0  0  0  0  0  0  0  0  0  0  0  0  0  0
 ITRead=  0  0  0  0  0  0  0  0  0  0  0  0  0  0  0  0  0  0  0  0
 ITRead=  0  0  0  0  0  0  0  0  0  0  0  0  0  0  0  0  0  0  0  0
 ITRead=  0  0  0  0  0  0  0  0  0  0  0  0  0  0  0  0  0  0  0  0
 ITRead=  0  0  0  0  0  0  0  0  0  0  0  0  0  0  0  0  0  0  0  0
 ITRead=  0  0  0  0  0  0  0  0  0  0  0  0  0  0  0  0  0  0  0  0
 ITRead=  0  0  0  0  0  0  0  0  0  0  0  0  0  0  0  0  0  0  0  0
 ITRead=  0  0  0  0
 MicOpt= -1 -1 -1 -1 -1 -1 -1 -1 -1 -1 -1 -1 -1 -1 -1 -1 -1 -1 -1 -1
 MicOpt= -1 -1 -1 -1 -1 -1 -1 -1 -1 -1 -1 -1 -1 -1 -1 -1 -1 -1 -1 -1
 MicOpt= -1 -1 -1 -1 -1 -1 -1 -1 -1 -1 -1 -1 -1 -1 -1 -1 -1 -1 -1 -1
 MicOpt= -1 -1 -1 -1 -1 -1 -1 -1 -1 -1 -1 -1 -1 -1 -1 -1 -1 -1 -1 -1
 MicOpt= -1 -1 -1 -1 -1 -1 -1 -1 -1 -1 -1 -1 -1 -1 -1 -1 -1 -1 -1 -1
 MicOpt= -1 -1 -1 -1 -1 -1 -1 -1 -1 -1 -1 -1 -1 -1 -1 -1 -1 -1 -1 -1
 MicOpt= -1 -1 -1 -1 -1 -1 -1 -1 -1 -1 -1 -1 -1 -1 -1 -1 -1 -1 -1 -1
 MicOpt= -1 -1 -1 -1 -1 -1 -1 -1 -1 -1 -1 -1 -1 -1 -1 -1 -1 -1 -1 -1
 MicOpt= -1 -1 -1 -1 -1 -1 -1 -1 -1 -1 -1 -1 -1 -1 -1 -1 -1 -1 -1 -1
 MicOpt= -1 -1 -1 -1 -1 -1 -1 -1 -1 -1 -1 -1 -1 -1 -1 -1 -1 -1 -1 -1
 MicOpt= -1 -1 -1 -1
                           ----------------------------
                           !    Current Parameters    !
                           ! (Angstroms and Degrees)  !
 --------------------------                            --------------------------
 ! Name  Definition              Value                                          !
 --------------------------------------------------------------------------------
 ! R1    R(1,2)                  1.0831                                         !
 ! R2    R(1,3)                  1.4039                                         !
 ! R3    R(1,30)                 1.3747                                         !
 ! R4    R(3,4)                  1.0831                                         !
 ! R5    R(3,5)                  1.3747                                         !
 ! R6    R(5,6)                  1.4909                                         !
 ! R7    R(5,32)                 1.4184                                         !
 ! R8    R(6,7)                  1.205                                          !
 ! R9    R(6,8)                  1.3954                                         !
 ! R10   R(8,9)                  1.3987                                         !
 ! R11   R(8,195)                1.3965                                         !
 ! R12   R(9,10)                 1.2926                                         !
 ! R13   R(9,11)                 1.452                                          !
 ! R14   R(10,196)               1.3892                                         !
 ! R15   R(11,12)                1.3776                                         !
 ! R16   R(11,32)                1.4175                                         !
 ! R17   R(12,13)                1.083                                          !
 ! R18   R(12,14)                1.4008                                         !
 ! R19   R(14,15)                1.083                                          !
 ! R20   R(14,16)                1.3776                                         !
 ! R21   R(16,17)                1.4519                                         !
 ! R22   R(16,31)                1.4175                                         !
 ! R23   R(17,18)                1.2926                                         !
 ! R24   R(17,27)                1.3987                                         !
 ! R25   R(18,19)                1.3892                                         !
 ! R26   R(19,20)                1.3871                                         !
 ! R27   R(19,26)                1.4154                                         !
 ! R28   R(20,21)                1.0813                                         !
 ! R29   R(20,22)                1.3871                                         !
 ! R30   R(22,23)                1.4154                                         !
 ! R31   R(22,42)                1.3892                                         !
 ! R32   R(23,24)                1.3868                                         !
 ! R33   R(23,40)                1.3965                                         !
 ! R34   R(24,25)                1.0778                                         !
 ! R35   R(24,26)                1.3868                                         !
 ! R36   R(26,27)                1.3965                                         !
 ! R37   R(27,28)                1.3955                                         !
 ! R38   R(28,29)                1.205                                          !
 ! R39   R(28,30)                1.4909                                         !
 ! R40   R(30,31)                1.4184                                         !
 ! R41   R(31,32)                1.4116                                         !
 ! R42   R(33,34)                1.0831                                         !
 ! R43   R(33,35)                1.4039                                         !
 ! R44   R(33,62)                1.3747                                         !
 ! R45   R(35,36)                1.0831                                         !
 ! R46   R(35,37)                1.3747                                         !
 ! R47   R(37,38)                1.4909                                         !
 ! R48   R(37,64)                1.4184                                         !
 ! R49   R(38,39)                1.205                                          !
 ! R50   R(38,40)                1.3955                                         !
 ! R51   R(40,41)                1.3987                                         !
 ! R52   R(41,42)                1.2926                                         !
 ! R53   R(41,43)                1.4519                                         !
 ! R54   R(43,44)                1.3776                                         !
 ! R55   R(43,64)                1.4175                                         !
 ! R56   R(44,45)                1.083                                          !
 ! R57   R(44,46)                1.4008                                         !
 ! R58   R(46,47)                1.083                                          !
 ! R59   R(46,48)                1.3776                                         !
 ! R60   R(48,49)                1.452                                          !
 ! R61   R(48,63)                1.4175                                         !
 ! R62   R(49,50)                1.2926                                         !
 ! R63   R(49,59)                1.3987                                         !
 ! R64   R(50,51)                1.3892                                         !
 ! R65   R(51,52)                1.3871                                         !
 ! R66   R(51,58)                1.4153                                         !
 ! R67   R(52,53)                1.0813                                         !
 ! R68   R(52,54)                1.3871                                         !
 ! R69   R(54,55)                1.4153                                         !
 ! R70   R(54,74)                1.3892                                         !
 ! R71   R(55,56)                1.3868                                         !
 ! R72   R(55,72)                1.3964                                         !
 ! R73   R(56,57)                1.0778                                         !
 ! R74   R(56,58)                1.3868                                         !
 ! R75   R(58,59)                1.3965                                         !
 ! R76   R(59,60)                1.3954                                         !
 ! R77   R(60,61)                1.205                                          !
 ! R78   R(60,62)                1.4909                                         !
 ! R79   R(62,63)                1.4184                                         !
 ! R80   R(63,64)                1.4116                                         !
 ! R81   R(65,66)                1.0831                                         !
 ! R82   R(65,67)                1.4038                                         !
 ! R83   R(65,94)                1.3747                                         !
 ! R84   R(67,68)                1.0831                                         !
 ! R85   R(67,69)                1.3747                                         !
 ! R86   R(69,70)                1.4907                                         !
 ! R87   R(69,96)                1.4184                                         !
 ! R88   R(70,71)                1.205                                          !
 ! R89   R(70,72)                1.3954                                         !
 ! R90   R(72,73)                1.3988                                         !
 ! R91   R(73,74)                1.2926                                         !
 ! R92   R(73,75)                1.452                                          !
 ! R93   R(75,76)                1.3776                                         !
 ! R94   R(75,96)                1.4176                                         !
 ! R95   R(76,77)                1.083                                          !
 ! R96   R(76,78)                1.4009                                         !
 ! R97   R(78,79)                1.083                                          !
 ! R98   R(78,80)                1.3777                                         !
 ! R99   R(80,81)                1.4522                                         !
 ! R100  R(80,95)                1.4176                                         !
 ! R101  R(81,82)                1.2926                                         !
 ! R102  R(81,91)                1.3988                                         !
 ! R103  R(82,83)                1.3894                                         !
 ! R104  R(83,84)                1.3873                                         !
 ! R105  R(83,90)                1.4152                                         !
 ! R106  R(84,85)                1.0813                                         !
 ! R107  R(84,86)                1.3872                                         !
 ! R108  R(86,87)                1.4153                                         !
 ! R109  R(86,106)               1.3894                                         !
 ! R110  R(87,88)                1.3866                                         !
 ! R111  R(87,104)               1.3963                                         !
 ! R112  R(88,89)                1.0777                                         !
 ! R113  R(88,90)                1.3866                                         !
 ! R114  R(90,91)                1.3964                                         !
 ! R115  R(91,92)                1.3952                                         !
 ! R116  R(92,93)                1.205                                          !
 ! R117  R(92,94)                1.4907                                         !
 ! R118  R(94,95)                1.4183                                         !
 ! R119  R(95,96)                1.4115                                         !
 ! R120  R(97,98)                1.0831                                         !
 ! R121  R(97,99)                1.4036                                         !
 ! R122  R(97,128)               1.3747                                         !
 ! R123  R(99,100)               1.0831                                         !
 ! R124  R(99,101)               1.3747                                         !
 ! R125  R(101,102)              1.4904                                         !
 ! R126  R(101,130)              1.4184                                         !
 ! R127  R(102,103)              1.2051                                         !
 ! R128  R(102,104)              1.3953                                         !
 ! R129  R(104,105)              1.3989                                         !
 ! R130  R(105,106)              1.2927                                         !
 ! R131  R(105,107)              1.4522                                         !
 ! R132  R(107,108)              1.3776                                         !
 ! R133  R(107,130)              1.4177                                         !
 ! R134  R(108,109)              1.083                                          !
 ! R135  R(108,110)              1.4011                                         !
 ! R136  R(110,111)              1.083                                          !
 ! R137  R(110,112)              1.3776                                         !
 ! R138  R(112,113)              1.4525                                         !
 ! R139  R(112,129)              1.4179                                         !
 ! R140  R(113,114)              1.2941                                         !
 ! R141  R(113,125)              1.3982                                         !
 ! R142  R(114,115)              1.3894                                         !
 ! R143  R(115,116)              1.3924                                         !
 ! R144  R(115,124)              1.4026                                         !
 ! R145  R(116,117)              1.0827                                         !
 ! R146  R(116,118)              1.3847                                         !
 ! R147  R(118,119)              1.0837                                         !
 ! R148  R(118,120)              1.4018                                         !
 ! R149  R(120,121)              1.0837                                         !
 ! R150  R(120,122)              1.3873                                         !
 ! R151  R(122,123)              1.0801                                         !
 ! R152  R(122,124)              1.3886                                         !
 ! R153  R(124,125)              1.3967                                         !
 ! R154  R(125,126)              1.3943                                         !
 ! R155  R(126,127)              1.2055                                         !
 ! R156  R(126,128)              1.4908                                         !
 ! R157  R(128,129)              1.4184                                         !
 ! R158  R(129,130)              1.4116                                         !
 ! R159  R(131,132)              1.4019                                         !
 ! R160  R(131,133)              1.3847                                         !
 ! R161  R(131,204)              1.0837                                         !
 ! R162  R(132,134)              1.3873                                         !
 ! R163  R(132,203)              1.0837                                         !
 ! R164  R(133,135)              1.3925                                         !
 ! R165  R(133,151)              1.0827                                         !
 ! R166  R(134,136)              1.3886                                         !
 ! R167  R(134,155)              1.0801                                         !
 ! R168  R(135,136)              1.4026                                         !
 ! R169  R(135,138)              1.3894                                         !
 ! R170  R(136,140)              1.3967                                         !
 ! R171  R(137,138)              1.2941                                         !
 ! R172  R(137,140)              1.3982                                         !
 ! R173  R(137,141)              1.4525                                         !
 ! R174  R(139,140)              1.3943                                         !
 ! R175  R(139,143)              1.2055                                         !
 ! R176  R(139,144)              1.4908                                         !
 ! R177  R(141,142)              1.3776                                         !
 ! R178  R(141,145)              1.4179                                         !
 ! R179  R(142,146)              1.4011                                         !
 ! R180  R(142,171)              1.083                                          !
 ! R181  R(144,145)              1.4184                                         !
 ! R182  R(144,147)              1.3747                                         !
 ! R183  R(145,148)              1.4116                                         !
 ! R184  R(146,149)              1.3776                                         !
 ! R185  R(146,183)              1.083                                          !
 ! R186  R(147,150)              1.4036                                         !
 ! R187  R(147,180)              1.0831                                         !
 ! R188  R(148,149)              1.4177                                         !
 ! R189  R(148,152)              1.4184                                         !
 ! R190  R(149,153)              1.4522                                         !
 ! R191  R(150,152)              1.3747                                         !
 ! R192  R(150,187)              1.0831                                         !
 ! R193  R(152,154)              1.4904                                         !
 ! R194  R(153,159)              1.3989                                         !
 ! R195  R(153,165)              1.2927                                         !
 ! R196  R(154,159)              1.3953                                         !
 ! R197  R(154,163)              1.2051                                         !
 ! R198  R(156,158)              1.3866                                         !
 ! R199  R(156,159)              1.3963                                         !
 ! R200  R(156,160)              1.4153                                         !
 ! R201  R(157,162)              1.4038                                         !
 ! R202  R(157,166)              1.3747                                         !
 ! R203  R(157,188)              1.0831                                         !
 ! R204  R(158,167)              1.3866                                         !
 ! R205  R(158,189)              1.0777                                         !
 ! R206  R(160,165)              1.3894                                         !
 ! R207  R(160,168)              1.3872                                         !
 ! R208  R(161,164)              1.205                                          !
 ! R209  R(161,166)              1.4907                                         !
 ! R210  R(161,174)              1.3952                                         !
 ! R211  R(162,170)              1.3747                                         !
 ! R212  R(162,190)              1.0831                                         !
 ! R213  R(166,172)              1.4183                                         !
 ! R214  R(167,169)              1.4152                                         !
 ! R215  R(167,174)              1.3964                                         !
 ! R216  R(168,169)              1.3873                                         !
 ! R217  R(168,192)              1.0813                                         !
 ! R218  R(169,179)              1.3894                                         !
 ! R219  R(170,175)              1.4907                                         !
 ! R220  R(170,176)              1.4184                                         !
 ! R221  R(172,176)              1.4115                                         !
 ! R222  R(172,178)              1.4176                                         !
 ! R223  R(173,174)              1.3988                                         !
 ! R224  R(173,178)              1.4522                                         !
 ! R225  R(173,179)              1.2926                                         !
 ! R226  R(175,177)              1.205                                          !
 ! R227  R(175,186)              1.3954                                         !
 ! R228  R(176,181)              1.4175                                         !
 ! R229  R(178,182)              1.3777                                         !
 ! R230  R(181,184)              1.452                                          !
 ! R231  R(181,185)              1.3776                                         !
 ! R232  R(182,185)              1.4008                                         !
 ! R233  R(182,193)              1.083                                          !
 ! R234  R(184,186)              1.3988                                         !
 ! R235  R(184,191)              1.2926                                         !
 ! R236  R(185,194)              1.083                                          !
 ! R237  R(186,198)              1.3964                                         !
 ! R238  R(191,199)              1.3892                                         !
 ! R239  R(195,196)              1.4153                                         !
 ! R240  R(195,197)              1.3868                                         !
 ! R241  R(196,200)              1.3871                                         !
 ! R242  R(197,198)              1.3868                                         !
 ! R243  R(197,201)              1.0778                                         !
 ! R244  R(198,199)              1.4153                                         !
 ! R245  R(199,200)              1.3871                                         !
 ! R246  R(200,202)              1.0813                                         !
 ! A1    A(2,1,3)              120.8182                                         !
 ! A2    A(2,1,30)             118.7836                                         !
 ! A3    A(3,1,30)             120.3982                                         !
 ! A4    A(1,3,4)              120.8132                                         !
 ! A5    A(1,3,5)              120.3998                                         !
 ! A6    A(4,3,5)              118.787                                          !
 ! A7    A(3,5,6)              118.5438                                         !
 ! A8    A(3,5,32)             120.4093                                         !
 ! A9    A(6,5,32)             121.047                                          !
 ! A10   A(5,6,7)              123.8602                                         !
 ! A11   A(5,6,8)              114.3154                                         !
 ! A12   A(7,6,8)              121.8244                                         !
 ! A13   A(6,8,9)              125.9238                                         !
 ! A14   A(6,8,195)            127.9287                                         !
 ! A15   A(9,8,195)            106.1475                                         !
 ! A16   A(8,9,10)             113.3696                                         !
 ! A17   A(8,9,11)             119.3121                                         !
 ! A18   A(10,9,11)            127.3184                                         !
 ! A19   A(9,10,196)           105.577                                          !
 ! A20   A(9,11,12)            121.7797                                         !
 ! A21   A(9,11,32)            117.7745                                         !
 ! A22   A(12,11,32)           120.4458                                         !
 ! A23   A(11,12,13)           118.8527                                         !
 ! A24   A(11,12,14)           120.371                                          !
 ! A25   A(13,12,14)           120.7763                                         !
 ! A26   A(12,14,15)           120.7747                                         !
 ! A27   A(12,14,16)           120.3718                                         !
 ! A28   A(15,14,16)           118.8535                                         !
 ! A29   A(14,16,17)           121.7757                                         !
 ! A30   A(14,16,31)           120.4481                                         !
 ! A31   A(17,16,31)           117.7762                                         !
 ! A32   A(16,17,18)           127.3042                                         !
 ! A33   A(16,17,27)           119.3199                                         !
 ! A34   A(18,17,27)           113.3759                                         !
 ! A35   A(17,18,19)           105.5737                                         !
 ! A36   A(18,19,20)           128.017                                          !
 ! A37   A(18,19,26)           110.552                                          !
 ! A38   A(20,19,26)           121.431                                          !
 ! A39   A(19,20,21)           122.1619                                         !
 ! A40   A(19,20,22)           115.6762                                         !
 ! A41   A(21,20,22)           122.1619                                         !
 ! A42   A(20,22,23)           121.431                                          !
 ! A43   A(20,22,42)           128.017                                          !
 ! A44   A(23,22,42)           110.552                                          !
 ! A45   A(22,23,24)           124.2517                                         !
 ! A46   A(22,23,40)           104.3531                                         !
 ! A47   A(24,23,40)           131.3952                                         !
 ! A48   A(23,24,25)           123.5207                                         !
 ! A49   A(23,24,26)           112.9584                                         !
 ! A50   A(25,24,26)           123.5209                                         !
 ! A51   A(19,26,24)           124.2517                                         !
 ! A52   A(19,26,27)           104.3532                                         !
 ! A53   A(24,26,27)           131.3951                                         !
 ! A54   A(17,27,26)           106.1452                                         !
 ! A55   A(17,27,28)           125.9148                                         !
 ! A56   A(26,27,28)           127.9399                                         !
 ! A57   A(27,28,29)           121.8195                                         !
 ! A58   A(27,28,30)           114.3168                                         !
 ! A59   A(29,28,30)           123.8638                                         !
 ! A60   A(1,30,28)            118.5444                                         !
 ! A61   A(1,30,31)            120.4063                                         !
 ! A62   A(28,30,31)           121.0492                                         !
 ! A63   A(16,31,30)           121.623                                          !
 ! A64   A(16,31,32)           119.1803                                         !
 ! A65   A(30,31,32)           119.1967                                         !
 ! A66   A(5,32,11)            121.6273                                         !
 ! A67   A(5,32,31)            119.1897                                         !
 ! A68   A(11,32,31)           119.1831                                         !
 ! A69   A(34,33,35)           120.8133                                         !
 ! A70   A(34,33,62)           118.7869                                         !
 ! A71   A(35,33,62)           120.3998                                         !
 ! A72   A(33,35,36)           120.8183                                         !
 ! A73   A(33,35,37)           120.3981                                         !
 ! A74   A(36,35,37)           118.7836                                         !
 ! A75   A(35,37,38)           118.5443                                         !
 ! A76   A(35,37,64)           120.4063                                         !
 ! A77   A(38,37,64)           121.0493                                         !
 ! A78   A(37,38,39)           123.8639                                         !
 ! A79   A(37,38,40)           114.3168                                         !
 ! A80   A(39,38,40)           121.8194                                         !
 ! A81   A(23,40,38)           127.9399                                         !
 ! A82   A(23,40,41)           106.1453                                         !
 ! A83   A(38,40,41)           125.9149                                         !
 ! A84   A(40,41,42)           113.376                                          !
 ! A85   A(40,41,43)           119.3199                                         !
 ! A86   A(42,41,43)           127.304                                          !
 ! A87   A(22,42,41)           105.5736                                         !
 ! A88   A(41,43,44)           121.7758                                         !
 ! A89   A(41,43,64)           117.7761                                         !
 ! A90   A(44,43,64)           120.448                                          !
 ! A91   A(43,44,45)           118.8537                                         !
 ! A92   A(43,44,46)           120.3717                                         !
 ! A93   A(45,44,46)           120.7746                                         !
 ! A94   A(44,46,47)           120.776                                          !
 ! A95   A(44,46,48)           120.3712                                         !
 ! A96   A(47,46,48)           118.8529                                         !
 ! A97   A(46,48,49)           121.7798                                         !
 ! A98   A(46,48,63)           120.4457                                         !
 ! A99   A(49,48,63)           117.7745                                         !
 ! A100  A(48,49,50)           127.3183                                         !
 ! A101  A(48,49,59)           119.3121                                         !
 ! A102  A(50,49,59)           113.3697                                         !
 ! A103  A(49,50,51)           105.577                                          !
 ! A104  A(50,51,52)           128.0252                                         !
 ! A105  A(50,51,58)           110.5484                                         !
 ! A106  A(52,51,58)           121.4263                                         !
 ! A107  A(51,52,53)           122.1622                                         !
 ! A108  A(51,52,54)           115.6771                                         !
 ! A109  A(53,52,54)           122.1606                                         !
 ! A110  A(52,54,55)           121.431                                          !
 ! A111  A(52,54,74)           128.0218                                         !
 ! A112  A(55,54,74)           110.5473                                         !
 ! A113  A(54,55,56)           124.2499                                         !
 ! A114  A(54,55,72)           104.3585                                         !
 ! A115  A(56,55,72)           131.3916                                         !
 ! A116  A(55,56,57)           123.5342                                         !
 ! A117  A(55,56,58)           112.9588                                         !
 ! A118  A(57,56,58)           123.507                                          !
 ! A119  A(51,58,56)           124.2568                                         !
 ! A120  A(51,58,59)           104.3574                                         !
 ! A121  A(56,58,59)           131.3858                                         !
 ! A122  A(49,59,58)           106.1475                                         !
 ! A123  A(49,59,60)           125.9239                                         !
 ! A124  A(58,59,60)           127.9286                                         !
 ! A125  A(59,60,61)           121.8245                                         !
 ! A126  A(59,60,62)           114.3154                                         !
 ! A127  A(61,60,62)           123.8601                                         !
 ! A128  A(33,62,60)           118.5437                                         !
 ! A129  A(33,62,63)           120.4094                                         !
 ! A130  A(60,62,63)           121.0469                                         !
 ! A131  A(48,63,62)           121.6272                                         !
 ! A132  A(48,63,64)           119.183                                          !
 ! A133  A(62,63,64)           119.1897                                         !
 ! A134  A(37,64,43)           121.6229                                         !
 ! A135  A(37,64,63)           119.1967                                         !
 ! A136  A(43,64,63)           119.1804                                         !
 ! A137  A(66,65,67)           120.8278                                         !
 ! A138  A(66,65,94)           118.7785                                         !
 ! A139  A(67,65,94)           120.3937                                         !
 ! A140  A(65,67,68)           120.8236                                         !
 ! A141  A(65,67,69)           120.3896                                         !
 ! A142  A(68,67,69)           118.7868                                         !
 ! A143  A(67,69,70)           118.5308                                         !
 ! A144  A(67,69,96)           120.4188                                         !
 ! A145  A(70,69,96)           121.0503                                         !
 ! A146  A(69,70,71)           123.8638                                         !
 ! A147  A(69,70,72)           114.3153                                         !
 ! A148  A(71,70,72)           121.8209                                         !
 ! A149  A(55,72,70)           127.9242                                         !
 ! A150  A(55,72,73)           106.1481                                         !
 ! A151  A(70,72,73)           125.9277                                         !
 ! A152  A(72,73,74)           113.3685                                         !
 ! A153  A(72,73,75)           119.306                                          !
 ! A154  A(74,73,75)           127.3255                                         !
 ! A155  A(54,74,73)           105.5776                                         !
 ! A156  A(73,75,76)           121.7879                                         !
 ! A157  A(73,75,96)           117.7754                                         !
 ! A158  A(76,75,96)           120.4366                                         !
 ! A159  A(75,76,77)           118.853                                          !
 ! A160  A(75,76,78)           120.3808                                         !
 ! A161  A(77,76,78)           120.7662                                         !
 ! A162  A(76,78,79)           120.767                                          !
 ! A163  A(76,78,80)           120.3778                                         !
 ! A164  A(79,78,80)           118.8552                                         !
 ! A165  A(78,80,81)           121.8033                                         !
 ! A166  A(78,80,95)           120.4257                                         !
 ! A167  A(81,80,95)           117.771                                          !
 ! A168  A(80,81,82)           127.3506                                         !
 ! A169  A(80,81,91)           119.2908                                         !
 ! A170  A(82,81,91)           113.3586                                         !
 ! A171  A(81,82,83)           105.5853                                         !
 ! A172  A(82,83,84)           128.0529                                         !
 ! A173  A(82,83,90)           110.5352                                         !
 ! A174  A(84,83,90)           121.4119                                         !
 ! A175  A(83,84,85)           122.1562                                         !
 ! A176  A(83,84,86)           115.6878                                         !
 ! A177  A(85,84,86)           122.156                                          !
 ! A178  A(84,86,87)           121.4089                                         !
 ! A179  A(84,86,106)          128.0583                                         !
 ! A180  A(87,86,106)          110.5329                                         !
 ! A181  A(86,87,88)           124.2663                                         !
 ! A182  A(86,87,104)          104.3715                                         !
 ! A183  A(88,87,104)          131.3622                                         !
 ! A184  A(87,88,89)           123.5175                                         !
 ! A185  A(87,88,90)           112.9605                                         !
 ! A186  A(89,88,90)           123.522                                          !
 ! A187  A(83,90,88)           124.2646                                         !
 ! A188  A(83,90,91)           104.3702                                         !
 ! A189  A(88,90,91)           131.3651                                         !
 ! A190  A(81,91,90)           106.1507                                         !
 ! A191  A(81,91,92)           125.9466                                         !
 ! A192  A(90,91,92)           127.9027                                         !
 ! A193  A(91,92,93)           121.8403                                         !
 ! A194  A(91,92,94)           114.3123                                         !
 ! A195  A(93,92,94)           123.8474                                         !
 ! A196  A(65,94,92)           118.5186                                         !
 ! A197  A(65,94,95)           120.4306                                         !
 ! A198  A(92,94,95)           121.0508                                         !
 ! A199  A(80,95,94)           121.6285                                         !
 ! A200  A(80,95,96)           119.1977                                         !
 ! A201  A(94,95,96)           119.1738                                         !
 ! A202  A(69,96,75)           121.6252                                         !
 ! A203  A(69,96,95)           119.1934                                         !
 ! A204  A(75,96,95)           119.1814                                         !
 ! A205  A(98,97,99)           120.8331                                         !
 ! A206  A(98,97,128)          118.7733                                         !
 ! A207  A(99,97,128)          120.3936                                         !
 ! A208  A(97,99,100)          120.8516                                         !
 ! A209  A(97,99,101)          120.3723                                         !
 ! A210  A(100,99,101)         118.7761                                         !
 ! A211  A(99,101,102)         118.4967                                         !
 ! A212  A(99,101,130)         120.4495                                         !
 ! A213  A(102,101,130)        121.0538                                         !
 ! A214  A(101,102,103)        123.866                                          !
 ! A215  A(101,102,104)        114.3135                                         !
 ! A216  A(103,102,104)        121.8205                                         !
 ! A217  A(87,104,102)         127.8894                                         !
 ! A218  A(87,104,105)         106.1569                                         !
 ! A219  A(102,104,105)        125.9538                                         !
 ! A220  A(104,105,106)        113.3515                                         !
 ! A221  A(104,105,107)        119.2724                                         !
 ! A222  A(106,105,107)        127.376                                          !
 ! A223  A(86,106,105)         105.5873                                         !
 ! A224  A(105,107,108)        121.8227                                         !
 ! A225  A(105,107,130)        117.779                                          !
 ! A226  A(108,107,130)        120.3983                                         !
 ! A227  A(107,108,109)        118.8477                                         !
 ! A228  A(107,108,110)        120.4038                                         !
 ! A229  A(109,108,110)        120.7486                                         !
 ! A230  A(108,110,111)        120.7711                                         !
 ! A231  A(108,110,112)        120.3999                                         !
 ! A232  A(111,110,112)        118.829                                          !
 ! A233  A(110,112,113)        121.8668                                         !
 ! A234  A(110,112,129)        120.3785                                         !
 ! A235  A(113,112,129)        117.7547                                         !
 ! A236  A(112,113,114)        127.4385                                         !
 ! A237  A(112,113,125)        119.2788                                         !
 ! A238  A(114,113,125)        113.2827                                         !
 ! A239  A(113,114,115)        105.3399                                         !
 ! A240  A(114,115,116)        128.999                                          !
 ! A241  A(114,115,124)        110.8233                                         !
 ! A242  A(116,115,124)        120.1777                                         !
 ! A243  A(115,116,117)        120.2365                                         !
 ! A244  A(115,116,118)        117.6892                                         !
 ! A245  A(117,116,118)        122.0742                                         !
 ! A246  A(116,118,119)        119.5248                                         !
 ! A247  A(116,118,120)        121.3445                                         !
 ! A248  A(119,118,120)        119.1307                                         !
 ! A249  A(118,120,121)        119.1951                                         !
 ! A250  A(118,120,122)        121.813                                          !
 ! A251  A(121,120,122)        118.992                                          !
 ! A252  A(120,122,123)        122.4018                                         !
 ! A253  A(120,122,124)        116.2498                                         !
 ! A254  A(123,122,124)        121.3485                                         !
 ! A255  A(115,124,122)        122.7258                                         !
 ! A256  A(115,124,125)        104.6096                                         !
 ! A257  A(122,124,125)        132.6646                                         !
 ! A258  A(113,125,124)        105.9445                                         !
 ! A259  A(113,125,126)        125.9955                                         !
 ! A260  A(124,125,126)        128.06                                           !
 ! A261  A(125,126,127)        121.8968                                         !
 ! A262  A(125,126,128)        114.314                                          !
 ! A263  A(127,126,128)        123.7892                                         !
 ! A264  A(97,128,126)         118.5114                                         !
 ! A265  A(97,128,129)         120.4477                                         !
 ! A266  A(126,128,129)        121.0409                                         !
 ! A267  A(112,129,128)        121.616                                          !
 ! A268  A(112,129,130)        119.2247                                         !
 ! A269  A(128,129,130)        119.1593                                         !
 ! A270  A(101,130,107)        121.6275                                         !
 ! A271  A(101,130,129)        119.1777                                         !
 ! A272  A(107,130,129)        119.1949                                         !
 ! A273  A(132,131,133)        121.3434                                         !
 ! A274  A(132,131,204)        119.1307                                         !
 ! A275  A(133,131,204)        119.526                                          !
 ! A276  A(131,132,134)        121.8127                                         !
 ! A277  A(131,132,203)        119.1946                                         !
 ! A278  A(134,132,203)        118.9927                                         !
 ! A279  A(131,133,135)        117.6907                                         !
 ! A280  A(131,133,151)        122.074                                          !
 ! A281  A(135,133,151)        120.2353                                         !
 ! A282  A(132,134,136)        116.251                                          !
 ! A283  A(132,134,155)        122.4025                                         !
 ! A284  A(136,134,155)        121.3464                                         !
 ! A285  A(133,135,136)        120.1765                                         !
 ! A286  A(133,135,138)        128.9995                                         !
 ! A287  A(136,135,138)        110.824                                          !
 ! A288  A(134,136,135)        122.7256                                         !
 ! A289  A(134,136,140)        132.6647                                         !
 ! A290  A(135,136,140)        104.6097                                         !
 ! A291  A(138,137,140)        113.2829                                         !
 ! A292  A(138,137,141)        127.4382                                         !
 ! A293  A(140,137,141)        119.279                                          !
 ! A294  A(135,138,137)        105.3391                                         !
 ! A295  A(140,139,143)        121.8969                                         !
 ! A296  A(140,139,144)        114.314                                          !
 ! A297  A(143,139,144)        123.7891                                         !
 ! A298  A(136,140,137)        105.9444                                         !
 ! A299  A(136,140,139)        128.0604                                         !
 ! A300  A(137,140,139)        125.9952                                         !
 ! A301  A(137,141,142)        121.8669                                         !
 ! A302  A(137,141,145)        117.7548                                         !
 ! A303  A(142,141,145)        120.3783                                         !
 ! A304  A(141,142,146)        120.4002                                         !
 ! A305  A(141,142,171)        118.8288                                         !
 ! A306  A(146,142,171)        120.7711                                         !
 ! A307  A(139,144,145)        121.0409                                         !
 ! A308  A(139,144,147)        118.5112                                         !
 ! A309  A(145,144,147)        120.4479                                         !
 ! A310  A(141,145,144)        121.616                                          !
 ! A311  A(141,145,148)        119.2247                                         !
 ! A312  A(144,145,148)        119.1593                                         !
 ! A313  A(142,146,149)        120.4035                                         !
 ! A314  A(142,146,183)        120.7489                                         !
 ! A315  A(149,146,183)        118.8475                                         !
 ! A316  A(144,147,150)        120.3936                                         !
 ! A317  A(144,147,180)        118.7733                                         !
 ! A318  A(150,147,180)        120.8331                                         !
 ! A319  A(145,148,149)        119.195                                          !
 ! A320  A(145,148,152)        119.1775                                         !
 ! A321  A(149,148,152)        121.6275                                         !
 ! A322  A(146,149,148)        120.3984                                         !
 ! A323  A(146,149,153)        121.8225                                         !
 ! A324  A(148,149,153)        117.7791                                         !
 ! A325  A(147,150,152)        120.3721                                         !
 ! A326  A(147,150,187)        120.8515                                         !
 ! A327  A(152,150,187)        118.7764                                         !
 ! A328  A(148,152,150)        120.4496                                         !
 ! A329  A(148,152,154)        121.0537                                         !
 ! A330  A(150,152,154)        118.4967                                         !
 ! A331  A(149,153,159)        119.2724                                         !
 ! A332  A(149,153,165)        127.3761                                         !
 ! A333  A(159,153,165)        113.3515                                         !
 ! A334  A(152,154,159)        114.3135                                         !
 ! A335  A(152,154,163)        123.8661                                         !
 ! A336  A(159,154,163)        121.8204                                         !
 ! A337  A(158,156,159)        131.3621                                         !
 ! A338  A(158,156,160)        124.2664                                         !
 ! A339  A(159,156,160)        104.3715                                         !
 ! A340  A(162,157,166)        120.3937                                         !
 ! A341  A(162,157,188)        120.8277                                         !
 ! A342  A(166,157,188)        118.7786                                         !
 ! A343  A(156,158,167)        112.9605                                         !
 ! A344  A(156,158,189)        123.5174                                         !
 ! A345  A(167,158,189)        123.5221                                         !
 ! A346  A(153,159,154)        125.9538                                         !
 ! A347  A(153,159,156)        106.1568                                         !
 ! A348  A(154,159,156)        127.8895                                         !
 ! A349  A(156,160,165)        110.533                                          !
 ! A350  A(156,160,168)        121.4089                                         !
 ! A351  A(165,160,168)        128.0582                                         !
 ! A352  A(164,161,166)        123.8473                                         !
 ! A353  A(164,161,174)        121.8403                                         !
 ! A354  A(166,161,174)        114.3124                                         !
 ! A355  A(157,162,170)        120.3896                                         !
 ! A356  A(157,162,190)        120.8235                                         !
 ! A357  A(170,162,190)        118.7869                                         !
 ! A358  A(153,165,160)        105.5873                                         !
 ! A359  A(157,166,161)        118.5188                                         !
 ! A360  A(157,166,172)        120.4307                                         !
 ! A361  A(161,166,172)        121.0506                                         !
 ! A362  A(158,167,169)        124.2647                                         !
 ! A363  A(158,167,174)        131.365                                          !
 ! A364  A(169,167,174)        104.3703                                         !
 ! A365  A(160,168,169)        115.6876                                         !
 ! A366  A(160,168,192)        122.1562                                         !
 ! A367  A(169,168,192)        122.1562                                         !
 ! A368  A(167,169,168)        121.412                                          !
 ! A369  A(167,169,179)        110.5352                                         !
 ! A370  A(168,169,179)        128.0527                                         !
 ! A371  A(162,170,175)        118.5309                                         !
 ! A372  A(162,170,176)        120.4188                                         !
 ! A373  A(175,170,176)        121.0504                                         !
 ! A374  A(166,172,176)        119.1738                                         !
 ! A375  A(166,172,178)        121.6286                                         !
 ! A376  A(176,172,178)        119.1976                                         !
 ! A377  A(174,173,178)        119.2906                                         !
 ! A378  A(174,173,179)        113.3586                                         !
 ! A379  A(178,173,179)        127.3508                                         !
 ! A380  A(161,174,167)        127.9028                                         !
 ! A381  A(161,174,173)        125.9466                                         !
 ! A382  A(167,174,173)        106.1505                                         !
 ! A383  A(170,175,177)        123.8638                                         !
 ! A384  A(170,175,186)        114.3152                                         !
 ! A385  A(177,175,186)        121.821                                          !
 ! A386  A(170,176,172)        119.1934                                         !
 ! A387  A(170,176,181)        121.6252                                         !
 ! A388  A(172,176,181)        119.1813                                         !
 ! A389  A(172,178,173)        117.7712                                         !
 ! A390  A(172,178,182)        120.4258                                         !
 ! A391  A(173,178,182)        121.803                                          !
 ! A392  A(169,179,173)        105.5854                                         !
 ! A393  A(176,181,184)        117.7755                                         !
 ! A394  A(176,181,185)        120.4368                                         !
 ! A395  A(184,181,185)        121.7876                                         !
 ! A396  A(178,182,185)        120.3777                                         !
 ! A397  A(178,182,193)        118.8549                                         !
 ! A398  A(185,182,193)        120.7675                                         !
 ! A399  A(181,184,186)        119.306                                          !
 ! A400  A(181,184,191)        127.3255                                         !
 ! A401  A(186,184,191)        113.3684                                         !
 ! A402  A(181,185,182)        120.3807                                         !
 ! A403  A(181,185,194)        118.8526                                         !
 ! A404  A(182,185,194)        120.7667                                         !
 ! A405  A(175,186,184)        125.9277                                         !
 ! A406  A(175,186,198)        127.9241                                         !
 ! A407  A(184,186,198)        106.1482                                         !
 ! A408  A(184,191,199)        105.5776                                         !
 ! A409  A(8,195,196)          104.3574                                         !
 ! A410  A(8,195,197)          131.3859                                         !
 ! A411  A(196,195,197)        124.2567                                         !
 ! A412  A(10,196,195)         110.5485                                         !
 ! A413  A(10,196,200)         128.0251                                         !
 ! A414  A(195,196,200)        121.4264                                         !
 ! A415  A(195,197,198)        112.9591                                         !
 ! A416  A(195,197,201)        123.5069                                         !
 ! A417  A(198,197,201)        123.5341                                         !
 ! A418  A(186,198,197)        131.3917                                         !
 ! A419  A(186,198,199)        104.3585                                         !
 ! A420  A(197,198,199)        124.2498                                         !
 ! A421  A(191,199,198)        110.5473                                         !
 ! A422  A(191,199,200)        128.0217                                         !
 ! A423  A(198,199,200)        121.431                                          !
 ! A424  A(196,200,199)        115.6771                                         !
 ! A425  A(196,200,202)        122.1623                                         !
 ! A426  A(199,200,202)        122.1606                                         !
 ! D1    D(2,1,3,4)              0.0062                                         !
 ! D2    D(2,1,3,5)           -179.9723                                         !
 ! D3    D(30,1,3,4)           179.9838                                         !
 ! D4    D(30,1,3,5)             0.0052                                         !
 ! D5    D(2,1,30,28)            0.0346                                         !
 ! D6    D(2,1,30,31)         -179.999                                          !
 ! D7    D(3,1,30,28)         -179.9435                                         !
 ! D8    D(3,1,30,31)            0.023                                          !
 ! D9    D(1,3,5,6)            179.9445                                         !
 ! D10   D(1,3,5,32)            -0.0258                                         !
 ! D11   D(4,3,5,6)             -0.0344                                         !
 ! D12   D(4,3,5,32)           179.9953                                         !
 ! D13   D(3,5,6,7)              0.0388                                         !
 ! D14   D(3,5,6,8)           -179.9379                                         !
 ! D15   D(32,5,6,7)          -179.9911                                         !
 ! D16   D(32,5,6,8)             0.0322                                         !
 ! D17   D(3,5,32,11)          179.9962                                         !
 ! D18   D(3,5,32,31)            0.0179                                         !
 ! D19   D(6,5,32,11)            0.0267                                         !
 ! D20   D(6,5,32,31)         -179.9517                                         !
 ! D21   D(5,6,8,9)             -0.0602                                         !
 ! D22   D(5,6,8,195)          179.8818                                         !
 ! D23   D(7,6,8,9)            179.9625                                         !
 ! D24   D(7,6,8,195)           -0.0955                                         !
 ! D25   D(6,8,9,10)           179.9731                                         !
 ! D26   D(6,8,9,11)             0.0283                                         !
 ! D27   D(195,8,9,10)           0.0207                                         !
 ! D28   D(195,8,9,11)        -179.9241                                         !
 ! D29   D(6,8,195,196)       -179.9599                                         !
 ! D30   D(6,8,195,197)         -0.0163                                         !
 ! D31   D(9,8,195,196)         -0.0088                                         !
 ! D32   D(9,8,195,197)        179.9348                                         !
 ! D33   D(8,9,10,196)          -0.0229                                         !
 ! D34   D(11,9,10,196)        179.9165                                         !
 ! D35   D(8,9,11,12)          179.9801                                         !
 ! D36   D(8,9,11,32)            0.0347                                         !
 ! D37   D(10,9,11,12)           0.0438                                         !
 ! D38   D(10,9,11,32)        -179.9016                                         !
 ! D39   D(9,10,196,195)         0.0166                                         !
 ! D40   D(9,10,196,200)      -179.9343                                         !
 ! D41   D(9,11,12,13)           0.0556                                         !
 ! D42   D(9,11,12,14)        -179.9201                                         !
 ! D43   D(32,11,12,13)        179.9996                                         !
 ! D44   D(32,11,12,14)          0.0239                                         !
 ! D45   D(9,11,32,5)           -0.0602                                         !
 ! D46   D(9,11,32,31)         179.9182                                         !
 ! D47   D(12,11,32,5)         179.9937                                         !
 ! D48   D(12,11,32,31)         -0.028                                          !
 ! D49   D(11,12,14,15)        179.9731                                         !
 ! D50   D(11,12,14,16)          0.0027                                         !
 ! D51   D(13,12,14,15)         -0.0021                                         !
 ! D52   D(13,12,14,16)       -179.9726                                         !
 ! D53   D(12,14,16,17)        179.9212                                         !
 ! D54   D(12,14,16,31)         -0.0247                                         !
 ! D55   D(15,14,16,17)         -0.0498                                         !
 ! D56   D(15,14,16,31)       -179.9957                                         !
 ! D57   D(14,16,17,18)         -0.0207                                         !
 ! D58   D(14,16,17,27)       -179.9519                                         !
 ! D59   D(31,16,17,18)        179.9266                                         !
 ! D60   D(31,16,17,27)         -0.0046                                         !
 ! D61   D(14,16,31,30)        179.9945                                         !
 ! D62   D(14,16,31,32)          0.0201                                         !
 ! D63   D(17,16,31,30)          0.0465                                         !
 ! D64   D(17,16,31,32)       -179.928                                          !
 ! D65   D(16,17,18,19)       -179.9141                                         !
 ! D66   D(27,17,18,19)          0.0205                                         !
 ! D67   D(16,17,27,26)        179.9172                                         !
 ! D68   D(16,17,27,28)         -0.0499                                         !
 ! D69   D(18,17,27,26)         -0.0232                                         !
 ! D70   D(18,17,27,28)       -179.9902                                         !
 ! D71   D(17,18,19,20)        179.9283                                         !
 ! D72   D(17,18,19,26)         -0.0101                                         !
 ! D73   D(18,19,20,21)          0.0439                                         !
 ! D74   D(18,19,20,22)       -179.9136                                         !
 ! D75   D(26,19,20,21)        179.9764                                         !
 ! D76   D(26,19,20,22)          0.0188                                         !
 ! D77   D(18,19,26,24)        179.9401                                         !
 ! D78   D(18,19,26,27)         -0.0035                                         !
 ! D79   D(20,19,26,24)         -0.0031                                         !
 ! D80   D(20,19,26,27)       -179.9467                                         !
 ! D81   D(19,20,22,23)         -0.0189                                         !
 ! D82   D(19,20,22,42)        179.9135                                         !
 ! D83   D(21,20,22,23)       -179.9764                                         !
 ! D84   D(21,20,22,42)         -0.044                                          !
 ! D85   D(20,22,23,24)          0.0032                                         !
 ! D86   D(20,22,23,40)        179.9467                                         !
 ! D87   D(42,22,23,24)       -179.94                                           !
 ! D88   D(42,22,23,40)          0.0036                                         !
 ! D89   D(20,22,42,41)       -179.9284                                         !
 ! D90   D(23,22,42,41)          0.01                                           !
 ! D91   D(22,23,24,25)        179.9808                                         !
 ! D92   D(22,23,24,26)          0.0125                                         !
 ! D93   D(40,23,24,25)          0.0537                                         !
 ! D94   D(40,23,24,26)       -179.9146                                         !
 ! D95   D(22,23,40,38)       -179.9815                                         !
 ! D96   D(22,23,40,41)         -0.0147                                         !
 ! D97   D(24,23,40,38)         -0.0437                                         !
 ! D98   D(24,23,40,41)        179.923                                          !
 ! D99   D(23,24,26,19)         -0.0125                                         !
 ! D100  D(23,24,26,27)        179.9147                                         !
 ! D101  D(25,24,26,19)       -179.9808                                         !
 ! D102  D(25,24,26,27)         -0.0536                                         !
 ! D103  D(19,26,27,17)          0.0148                                         !
 ! D104  D(19,26,27,28)        179.981                                          !
 ! D105  D(24,26,27,17)       -179.923                                          !
 ! D106  D(24,26,27,28)          0.0431                                         !
 ! D107  D(17,27,28,29)       -179.9636                                         !
 ! D108  D(17,27,28,30)          0.056                                          !
 ! D109  D(26,27,28,29)          0.0765                                         !
 ! D110  D(26,27,28,30)       -179.9039                                         !
[...]
    18  N   -0.357091
    19  C   -0.030408
    20  C   -0.045995
    21  H    0.121697
    22  C   -0.030408
    23  C    0.229912
    24  C    0.017424
    25  H    0.173841
    26  C    0.229914
    27  N   -0.617811
    28  C    0.576854
    29  O   -0.317641
    30  C   -0.294607
    31  C    0.152420
    32  C    0.152383
    33  C   -0.019195
    34  H    0.137297
    35  C   -0.019270
    36  H    0.137293
    37  C   -0.294609
    38  C    0.576855
    39  O   -0.317641
    40  N   -0.617809
    41  C    0.548342
    42  N   -0.357091
    43  C   -0.270735
    44  C   -0.000879
    45  H    0.129945
    46  C   -0.000963
    47  H    0.129950
    48  C   -0.270531
    49  C    0.548205
    50  N   -0.357092
    51  C   -0.030413
    52  C   -0.045995
    53  H    0.121679
    54  C   -0.030423
    55  C    0.229827
    56  C    0.017625
    57  H    0.173834
    58  C    0.229874
    59  N   -0.617773
    60  C    0.576872
    61  O   -0.317670
    62  C   -0.294647
    63  C    0.152384
    64  C    0.152420
    65  C   -0.019141
    66  H    0.137268
    67  C   -0.019287
    68  H    0.137248
    69  C   -0.294758
    70  C    0.576920
    71  O   -0.317752
    72  N   -0.617741
    73  C    0.548271
    74  N   -0.357120
    75  C   -0.270827
    76  C   -0.000904
    77  H    0.129905
    78  C   -0.001217
    79  H    0.129922
    80  C   -0.269974
    81  C    0.547898
    82  N   -0.357070
    83  C   -0.030282
    84  C   -0.046288
    85  H    0.121545
    86  C   -0.030008
    87  C    0.229592
    88  C    0.017625
    89  H    0.173760
    90  C    0.229397
    91  N   -0.617644
    92  C    0.576983
    93  O   -0.317801
    94  C   -0.295024
    95  C    0.152265
    96  C    0.152506
    97  C   -0.019880
    98  H    0.136120
    99  C   -0.019341
   100  H    0.136808
   101  C   -0.295505
   102  C    0.576998
   103  O   -0.318287
   104  N   -0.617611
   105  C    0.548249
   106  N   -0.357366
   107  C   -0.271467
   108  C   -0.000877
   109  H    0.129542
   110  C   -0.003265
   111  H    0.129764
   112  C   -0.264523
   113  C    0.544440
   114  N   -0.354363
   115  C   -0.029006
   116  C   -0.079596
   117  H    0.117298
   118  C   -0.110658
   119  H    0.114964
   120  C   -0.119483
   121  H    0.117224
   122  C   -0.047169
   123  H    0.142448
   124  C    0.229502
   125  N   -0.610351
   126  C    0.577929
   127  O   -0.321420
   128  C   -0.295983
   129  C    0.150627
   130  C    0.153321
   131  C   -0.110658
   132  C   -0.119483
   133  C   -0.079600
   134  C   -0.047174
   135  C   -0.029004
   136  C    0.229503
   137  C    0.544440
   138  N   -0.354361
   139  C    0.577931
   140  N   -0.610352
   141  C   -0.264524
   142  C   -0.003266
   143  O   -0.321420
   144  C   -0.295982
   145  C    0.150625
   146  C   -0.000873
   147  C   -0.019879
   148  C    0.153322
   149  C   -0.271472
   150  C   -0.019340
   151  H    0.117299
   152  C   -0.295503
   153  C    0.548249
   154  C    0.576997
   155  H    0.142448
   156  C    0.229592
   157  C   -0.019140
   158  C    0.017625
   159  N   -0.617613
   160  C   -0.030008
   161  C    0.576982
   162  C   -0.019288
   163  O   -0.318285
   164  O   -0.317803
   165  N   -0.357365
   166  C   -0.295022
   167  C    0.229398
   168  C   -0.046286
   169  C   -0.030282
   170  C   -0.294756
   171  H    0.129765
   172  C    0.152266
   173  C    0.547898
   174  N   -0.617644
   175  C    0.576921
   176  C    0.152504
   177  O   -0.317750
   178  C   -0.269977
   179  N   -0.357070
   180  H    0.136120
   181  C   -0.270830
   182  C   -0.001215
   183  H    0.129541
   184  C    0.548269
   185  C   -0.000903
   186  N   -0.617742
   187  H    0.136808
   188  H    0.137268
   189  H    0.173760
   190  H    0.137248
   191  N   -0.357120
   192  H    0.121545
   193  H    0.129922
   194  H    0.129905
   195  C    0.229875
   196  C   -0.030414
   197  C    0.017624
   198  C    0.229827
   199  C   -0.030423
   200  C   -0.045994
   201  H    0.173833
   202  H    0.121679
   203  H    0.117225
   204  H    0.114964
 Sum of Mulliken charges =  -0.00000
 Mulliken charges with hydrogens summed into heavy atoms:
               1
     1  C    0.118022
     3  C    0.118102
     5  C   -0.294646
     6  C    0.576872
     7  O   -0.317668
     8  N   -0.617773
     9  C    0.548202
    10  N   -0.357091
    11  C   -0.270530
    12  C    0.128988
    14  C    0.129066
    16  C   -0.270736
    17  C    0.548341
    18  N   -0.357091
    19  C   -0.030408
    20  C    0.075702
    22  C   -0.030408
    23  C    0.229912
    24  C    0.191265
    26  C    0.229914
    27  N   -0.617811
    28  C    0.576854
    29  O   -0.317641
    30  C   -0.294607
    31  C    0.152420
    32  C    0.152383
    33  C    0.118102
    35  C    0.118022
    37  C   -0.294609
    38  C    0.576855
    39  O   -0.317641
    40  N   -0.617809
    41  C    0.548342
    42  N   -0.357091
    43  C   -0.270735
    44  C    0.129066
    46  C    0.128987
    48  C   -0.270531
    49  C    0.548205
    50  N   -0.357092
    51  C   -0.030413
    52  C    0.075684
    54  C   -0.030423
    55  C    0.229827
    56  C    0.191459
    58  C    0.229874
    59  N   -0.617773
    60  C    0.576872
    61  O   -0.317670
    62  C   -0.294647
    63  C    0.152384
    64  C    0.152420
    65  C    0.118127
    67  C    0.117960
    69  C   -0.294758
    70  C    0.576920
    71  O   -0.317752
    72  N   -0.617741
    73  C    0.548271
    74  N   -0.357120
    75  C   -0.270827
    76  C    0.129001
    78  C    0.128705
    80  C   -0.269974
    81  C    0.547898
    82  N   -0.357070
    83  C   -0.030282
    84  C    0.075258
    86  C   -0.030008
    87  C    0.229592
    88  C    0.191385
    90  C    0.229397
    91  N   -0.617644
    92  C    0.576983
    93  O   -0.317801
    94  C   -0.295024
    95  C    0.152265
    96  C    0.152506
    97  C    0.116240
    99  C    0.117467
   101  C   -0.295505
   102  C    0.576998
   103  O   -0.318287
   104  N   -0.617611
   105  C    0.548249
   106  N   -0.357366
   107  C   -0.271467
   108  C    0.128665
   110  C    0.126499
   112  C   -0.264523
   113  C    0.544440
   114  N   -0.354363
   115  C   -0.029006
   116  C    0.037702
   118  C    0.004306
   120  C   -0.002259
   122  C    0.095279
   124  C    0.229502
   125  N   -0.610351
   126  C    0.577929
   127  O   -0.321420
   128  C   -0.295983
   129  C    0.150627
   130  C    0.153321
   131  C    0.004306
   132  C   -0.002258
   133  C    0.037698
   134  C    0.095274
   135  C   -0.029004
   136  C    0.229503
   137  C    0.544440
   138  N   -0.354361
   139  C    0.577931
   140  N   -0.610352
   141  C   -0.264524
   142  C    0.126498
   143  O   -0.321420
   144  C   -0.295982
   145  C    0.150625
   146  C    0.128669
   147  C    0.116241
   148  C    0.153322
   149  C   -0.271472
   150  C    0.117467
   152  C   -0.295503
   153  C    0.548249
   154  C    0.576997
   156  C    0.229592
   157  C    0.118127
   158  C    0.191385
   159  N   -0.617613
   160  C   -0.030008
   161  C    0.576982
   162  C    0.117960
   163  O   -0.318285
   164  O   -0.317803
   165  N   -0.357365
   166  C   -0.295022
   167  C    0.229398
   168  C    0.075259
   169  C   -0.030282
   170  C   -0.294756
   172  C    0.152266
   173  C    0.547898
   174  N   -0.617644
   175  C    0.576921
   176  C    0.152504
   177  O   -0.317750
   178  C   -0.269977
   179  N   -0.357070
   181  C   -0.270830
   182  C    0.128707
   184  C    0.548269
   185  C    0.129002
   186  N   -0.617742
   191  N   -0.357120
   195  C    0.229875
   196  C   -0.030414
   197  C    0.191457
   198  C    0.229827
   199  C   -0.030423
   200  C    0.075684
 Electronic spatial extent (au):  <R**2>=        1770051.1233
 Charge=              0.0000 electrons
 Dipole moment (field-independent basis, Debye):
    X=             -0.0001    Y=             -0.5338    Z=             -0.0470  Tot=              0.5358
 Quadrupole moment (field-independent basis, Debye-Ang):
   XX=           -791.7528   YY=           -905.4451   ZZ=           -908.9061
   XY=              0.0010   XZ=              0.0001   YZ=             -0.0261
 Traceless Quadrupole moment (field-independent basis, Debye-Ang):
   XX=             76.9486   YY=            -36.7438   ZZ=            -40.2048
   XY=              0.0010   XZ=              0.0001   YZ=             -0.0261
 Octapole moment (field-independent basis, Debye-Ang**2):
  XXX=             -0.2724  YYY=             78.1662  ZZZ=              6.0207  XYY=             -0.0014
  XXY=            307.7136  XXZ=            -43.0826  XZZ=             -0.0017  YZZ=             42.6582
  YYZ=             -0.8207  XYZ=             -0.0054
 Hexadecapole moment (field-independent basis, Debye-Ang**3):
 XXXX=       -2205018.9740 YYYY=         -35085.0803 ZZZZ=           -960.8375 XXXY=              0.2325
 XXXZ=             -0.2758 YYYX=             -0.0354 YYYZ=             42.2773 ZZZX=              0.0018
 ZZZY=              9.3337 XXYY=        -419234.6739 XXZZ=        -421825.4456 YYZZ=          -6269.1138
 XXYZ=             79.6366 YYXZ=             -0.0268 ZZXY=              0.0003
 N-N= 2.610951789196D+04 E-N=-6.861677030919D+04  KE= 7.018861367910D+03
 Leave Link  601 at Sat Feb 17 23:47:06 2024, MaxMem= 26843545600 cpu:              83.2 elap:               3.0
 (Enter /apps/gaussian/g16-c01-avx2/g16/l9999.exe)
 Unable to Open any file for archive entry.
 1\1\GINC-CX3-6-24\Stability\RwB97XD\6-311G(d,p)\C126H42N24O12\NS5018\1
 7-Feb-2024\0\\#p wB97XD/6-311(d,p) Geom=AllCheck guess=read stable\\00
 1\\0,1\C,0,6.5676900488,-1.045900725,-0.1261396186\H,0,7.0678400956,-0
 .0855499477,-0.1515518404\C,0,5.1661313037,-1.1270652112,-0.1235774753
 \H,0,4.5584538672,-0.2308193437,-0.1470669523\C,0,4.5402259637,-2.3505
 969758,-0.0906317807\C,0,3.0498561843,-2.388521476,-0.087935221\O,0,2.
 3531969573,-1.4056651576,-0.1137121575\N,0,2.507865804,-3.6738845422,-
 0.0520783686\C,0,3.2328786302,-4.8696527324,-0.021278177\N,0,2.4839240
 341,-5.9227190847,0.0092901763\C,0,4.6840506934,-4.8213744623,-0.02497
 59438\C,0,5.4481957601,-5.9672807703,0.0048317559\H,0,4.9488059946,-6.
 9279288258,0.0307763467\C,0,6.8466112071,-5.8862715442,0.0020197292\H,
 0,7.45366203,-6.7828372437,0.0257746235\C,0,7.4732082637,-4.6598231126
 ,-0.0305288836\C,0,8.920215884,-4.5403328392,-0.0326775943\N,0,9.78554
 42338,-5.5001463709,-0.0058339323\C,0,11.0292637025,-4.8815083204,-0.0
 19747295\C,0,12.2808736785,-5.4790318937,-0.0003278211\H,0,12.40572940
 89,-6.5527188579,0.0286864567\C,0,13.3619723763,-4.6102400192,-0.01960
 52118\C,0,13.1806224401,-3.2070432561,-0.057090088\C,0,11.9437704143,-
 2.580139507,-0.0775816808\H,0,11.8193183027,-1.5099163314,-0.105825483
 3\C,0,10.8837809334,-3.4741404614,-0.0572296737\N,0,9.502438252,-3.268
 99026,-0.0654425942\C,0,8.8155571575,-2.0547140124,-0.0985517087\O,0,9
 .3941117825,-0.9980647931,-0.1262954344\C,0,7.3307365121,-2.1890277225
 ,-0.0958403026\C,0,6.7116461062,-3.4647090723,-0.0621043556\C,0,5.3024
 604719,-3.5463417208,-0.0593648347\C,0,18.2071066015,0.389457284,-0.12
 2811768\H,0,18.5929078072,1.4012310298,-0.1462461549\C,0,16.8243234653
 ,0.1468350149,-0.125540007\H,0,16.1171464613,0.9667856324,-0.151029377
 7\C,0,16.3439545504,-1.1408922363,-0.0953066085\C,0,14.8679378364,-1.3
 508909946,-0.0981922147\O,0,14.0623505689,-0.4552045843,-0.1260343837\
 N,0,14.4780280137,-2.6903858912,-0.0651387684\C,0,15.3364478753,-3.794
 1954787,-0.0322872444\N,0,14.7144628622,-4.926967687,-0.0055314792\C,0
 ,16.7722623478,-3.5784483213,-0.0299649632\C,0,17.6635740083,-4.628380
 0867,0.002679696\H,0,17.2784637976,-5.6403219706,0.026379286\C,0,19.04
 32639008,-4.3863235036,0.0056564197\H,0,19.7497643227,-5.2067400079,0.
 0316763463\C,0,19.5240652399,-3.0956448245,-0.0240824906\C,0,20.947588
 7206,-2.8096267651,-0.0202177308\N,0,21.9182042375,-3.6627261758,0.010
 4558391\C,0,23.0820102022,-2.9041669014,0.0015228948\C,0,24.3943975657
 ,-3.3525379108,0.0261558494\H,0,24.6428014715,-4.4045119955,0.05593323
 23\C,0,25.3675525582,-2.3642549738,0.0108544672\C,0,25.0248996462,-0.9
 915781379,-0.0279013946\C,0,23.7238050395,-0.5123499653,-0.0535795492\
 H,0,23.4759533091,0.5361352711,-0.082868133\C,0,22.7745976205,-1.52320
 41624,-0.0370755427\N,0,21.3788577424,-1.4793973875,-0.0509589433\C,0,
 20.5563768446,-0.3527075901,-0.0868889663\O,0,21.0089060437,0.76378802
 07,-0.1126229132\C,0,19.0970741084,-0.6577965606,-0.0897672887\C,0,18.
 62957124,-1.9965445875,-0.0585671878\C,0,17.239258712,-2.240465043,-0.
 0614736568\C,0,29.5988235132,3.1646178087,-0.0803970714\H,0,29.8646334
 028,4.2143120418,-0.103665869\C,0,28.2537652728,2.7628178727,-0.086405
 8745\H,0,27.4560048024,3.4948563571,-0.1143524179\C,0,27.9265763785,1.
 4279180166,-0.0565737162\C,0,26.4851531184,1.047796849,-0.0636085533\O
 ,0,25.5809739854,1.8437738253,-0.0941022666\N,0,26.253553942,-0.327914
 3001,-0.031415699\C,0,27.2342124948,-1.3246694744,0.0049139639\N,0,26.
 7476523507,-2.5219453393,0.02994156\C,0,28.6352492672,-0.9433789902,0.
 0116243669\C,0,29.6427114179,-1.8823101011,0.0475158289\H,0,29.3780343
 226,-2.9322200022,0.0708408439\C,0,30.9849427694,-1.4813612687,0.05393
 04707\H,0,31.7819083144,-2.2141324529,0.0823966232\C,0,31.31256505,-0.
 1435546219,0.0243012581\C,0,32.6931930327,0.3065805107,0.030880712\N,0
 ,33.7570589654,-0.4269234951,0.0640232\C,0,34.824241845,0.4627020778,0
 .0560201605\C,0,36.1804079179,0.171602088,0.0827828812\H,0,36.55054175
 66,-0.8439225433,0.1140574008\C,0,37.0310128459,1.2672856286,0.0672356
 742\C,0,36.5292606593,2.590032006,0.0262894933\C,0,35.1810906781,2.913
 1398115,-0.0012009563\H,0,34.8122374984,3.925238181,-0.0321135615\C,0,
 34.3571324155,1.7979743777,0.0155369396\N,0,32.9659638684,1.67814125,-
 0.0004431746\C,0,32.0179287342,2.7011072994,-0.0387134816\O,0,32.33694
 02305,3.862855546,-0.0642783167\C,0,30.6043548166,2.2279336986,-0.0444
 483551\C,0,30.2960476963,0.8438614265,-0.0132890947\C,0,28.9435678248,
 0.4398865725,-0.0195493768\C,0,40.5774830634,7.2580999949,-0.031567617
 9\H,0,40.7168795056,8.3318533162,-0.0568255842\C,0,39.2898473071,6.699
 4994857,-0.0372101921\H,0,38.4105158068,7.331140961,-0.066942304\C,0,3
 9.1238775945,5.3351900073,-0.0049140613\C,0,37.7379390712,4.7871045805
 ,-0.0120034147\O,0,36.7457605965,5.4703252472,-0.0445500205\N,0,37.670
 9565769,3.3938067981,0.0226641089\C,0,38.7624861084,2.5197567982,0.061
 2133178\N,0,38.4202444496,1.2734681343,0.0877227714\C,0,40.1085543024,
 3.064620459,0.0679869567\C,0,41.2207268168,2.2525742006,0.1059618121\H
 ,0,41.082987105,1.1786297357,0.1311712622\C,0,42.5060364936,2.81027061
 26,0.1118570763\H,0,43.384465839,2.1774889697,0.1418039339\C,0,42.6729
 183758,4.1773225033,0.0796774582\C,0,43.990190987,4.7894091339,0.08486
 34825\N,0,45.1363158001,4.189448152,0.1183192304\C,0,46.0836605548,5.2
 05766248,0.1074281818\C,0,47.4725453375,5.1093607724,0.1318642451\H,0,
 47.9512239262,4.1387460707,0.1641846137\C,0,48.199745508,6.2876076777,
 0.1133411615\H,0,49.2825418086,6.247234194,0.1314884531\C,0,47.5640137
 774,7.5363131432,0.0714302985\H,0,48.1673003554,8.4364305974,0.0580411
 238\C,0,46.1818093185,7.6527982842,0.0465694948\H,0,45.6821127182,8.60
 98384736,0.0142665955\C,0,45.4648446069,6.4637928171,0.065517453\N,0,4
 4.0967359901,6.1831191831,0.0510085994\C,0,43.0345617146,7.0854156068,
 0.0111736683\O,0,43.2120886983,8.2774264981,-0.0165713608\C,0,41.68710
 73701,6.4475053236,0.0064045724\C,0,41.5457228405,5.0365539098,0.04016
 68403\C,0,40.2507393381,4.4747463578,0.0343614245\C,0,-25.3796634852,-
 2.2689458593,0.1094062056\C,0,-25.0474317702,-0.9076735306,0.067570832
 4\C,0,-24.401479265,-3.2488603652,0.1280006925\C,0,-23.7288435161,-0.4
 771284468,0.0428869429\C,0,-23.0717577065,-2.8363215497,0.1037387248\C
 ,0,-22.758151825,-1.4698687514,0.061904876\C,0,-20.9386148367,-2.76115
 41793,0.0814159352\N,0,-21.9164760949,-3.6081282225,0.1147534511\C,0,-
 20.53536792,-0.3071193025,0.0078218766\N,0,-21.362146371,-1.4290900931
 ,0.0475397473\C,0,-19.5160380594,-3.0546166266,0.0763709629\C,0,-19.03
 98986474,-4.3468932249,0.1085720112\O,0,-20.9816944358,0.8123425365,-0
 .0199603842\C,0,-19.0774869996,-0.6187926739,0.0031892824\C,0,-18.6160
 953701,-1.9596479347,0.0369735069\C,0,-17.6609125652,-4.5947561456,0.1
 028114211\C,0,-18.1834919234,0.4248047805,-0.0346728484\C,0,-17.226746
 9902,-2.2092914584,0.0313058661\C,0,-16.7647651553,-3.5491549547,0.064
 9500049\C,0,-16.8020262935,0.1766009792,-0.0401756225\H,0,-24.64464305
 14,-4.3034188986,0.1602813123\C,0,-16.327407987,-1.1132141295,-0.00785
 48417\C,0,-15.3295857672,-3.7705860201,0.0583101433\C,0,-14.8526789429
 ,-1.3286292432,-0.0147855006\H,0,-23.4620709353,0.5690387705,0.0106349
 767\C,0,-13.1720794231,-3.1897100131,0.0235984337\C,0,-6.5584305584,-1
 .0400784951,-0.0824112147\C,0,-11.9340297963,-2.5658492084,-0.00376208
 66\N,0,-14.4677557119,-2.6693763134,0.0198660441\C,0,-13.3569066401,-4
 .5922984586,0.0644909506\C,0,-8.8066215709,-2.0463489725,-0.0409894078
 \C,0,-5.157059638,-1.1224973295,-0.088280888\O,0,-14.0437578461,-0.435
 9590236,-0.0472699065\O,0,-9.3837130012,-0.9888060863,-0.0665575405\N,
 0,-14.7104829049,-4.9050797862,0.0848451188\C,0,-7.3221848032,-2.18251
 04866,-0.0465711967\C,0,-10.8761567493,-3.4621761603,0.0130483888\C,0,
 -12.2775665358,-5.4635514608,0.0801134408\C,0,-11.0243895326,-4.869006
 9414,0.0534807723\C,0,-4.5322769732,-2.3466921002,-0.0584197631\H,0,-1
 9.7496811091,-5.1643700426,0.1384293388\C,0,-6.7044983181,-3.458902741
 3,-0.0153819303\C,0,-8.914380723,-4.531936347,0.0285464642\N,0,-9.4946
 118157,-3.259566837,-0.0028012621\C,0,-3.0420920074,-2.3858973193,-0.0
 653123635\C,0,-5.2954062481,-3.5417361487,-0.0215023115\O,0,-2.3446958
 436,-1.4036753601,-0.0956829875\C,0,-7.4673016367,-4.65323254,0.022103
 4257\N,0,-9.7815380607,-5.4899980027,0.0615813067\H,0,-18.5655722599,1
 .4379135444,-0.0599503821\C,0,-4.6778959753,-4.8173323083,0.0097031874
 \C,0,-6.8414317228,-5.8801611457,0.0517664053\H,0,-17.2803995604,-5.60
 84284411,0.1280357229\C,0,-3.2267496987,-4.8669466731,0.0031435949\C,0
 ,-5.4430124047,-5.9623996409,0.0454906735\N,0,-2.5009855326,-3.6717532
 353,-0.0330895114\H,0,-16.0911113226,0.9931797063,-0.069815602\H,0,-7.
 0580220587,-0.0793915524,-0.1057069928\H,0,-11.8072729928,-1.496115565
 8,-0.0346345501\H,0,-4.5485711188,-0.2269239503,-0.1161440075\N,0,-2.4
 784303071,-5.920621102,0.0282313773\H,0,-12.4047830134,-6.5369112411,0
 .1113475859\H,0,-7.4489865382,-6.7762595179,0.0801518865\H,0,-4.944460
 9702,-6.9235538996,0.0688448147\C,0,1.1594251001,-4.0368101478,-0.0383
 514609\C,0,1.1771084337,-5.451466197,0.0002221895\C,0,0.0035818857,-3.
 2707533456,-0.0549682158\C,0,-1.15282593,-4.0357609469,-0.0294313566\C
 ,0,-1.1713432647,-5.450438674,0.0092953705\C,0,0.0026296808,-6.1890350
 536,0.0247113108\H,0,0.0042205585,-2.1933708253,-0.0842370586\H,0,0.00
 2252573,-7.2699397259,0.0544679163\H,0,-25.8411769,-0.1700161862,0.054
 1059807\H,0,-26.4243273664,-2.5567199766,0.1274116262\\Version=ES64L-G
 16RevC.01\State=1-A\HF=-7043.2791828\RMSD=2.217e-09\Dipole=0.0242981,-
 0.2086072,0.0182674\Quadrupole=56.0817002,-26.1904718,-29.8912285,9.69
 77884,0.0021451,0.0224683\PG=C01 [X(C126H42N24O12)]\\@
 The archive entry for this job was punched.


 AND HERE I AM, FOR ALL MY LORE,
 THE WRETCHED FOOL I WAS BEFORE.
 CALLED MASTER OF ARTS, AND DOCTOR TO BOOT,
 FOR TEN YEARS ALMOST I CONFUTE
 AND UP AND DOWN, WHEREVER IT GOES
 I DRAG MY STUDENTS BY THE NOSE --
 AND SEE THAT FOR ALL OUR SCIENCE AND ART
 WE CAN KNOW NOTHING.  IT BURNS MY HEART.

                                       -- FAUST
 Job cpu time:       3 days  4 hours 35 minutes 15.9 seconds.
 Elapsed time:       0 days  2 hours 26 minutes 10.1 seconds.
 File lengths (MBytes):  RWF=  68184 Int=      0 D2E=      0 Chk=   2992 Scr=     16
 Normal termination of Gaussian 16 at Sat Feb 17 23:47:08 2024.
